This is Gaussian file created by HARLEM                                 
SP        RHF                                                         Gen
Number of atoms                            I               12
Charge                                     I                0
Multiplicity                               I                1
Number of electrons                        I               42
Number of alpha electrons                  I               21
Number of beta electrons                   I               21
Number of basis functions                  I               66
Number of independant functions            I               66
Number of contracted shells                I               42
Highest angular momentum                   I                1
Largest degree of contraction              I                3
Number of primitive shells                 I               72
Viriral Ratio                              R      2.003402604697532E+00
SCF Energy                                 R     -2.294169987274040E+02
Total Energy                               R     -2.294169987274040E+02
RMS Density                                R      8.693112822255264E-09
Atomic numbers                             I   N=          12
           1           6           6           6           6           6
           6           1           1           1           1           1
Nuclear charges                            R   N=          12
  1.00000000E+00  6.00000000E+00  6.00000000E+00  6.00000000E+00  6.00000000E+00
  6.00000000E+00  6.00000000E+00  1.00000000E+00  1.00000000E+00  1.00000000E+00
  1.00000000E+00  1.00000000E+00
Current cartesian coordinates              R   N=          36
  1.75624125E+00 -3.72347174E+00 -7.36225693E-01 -5.20664287E+00 -1.66296270E+00
  4.08435626E-01 -3.31605321E+00  1.65449622E-01  1.22314718E-01 -8.10130906E-01
 -5.76121752E-01 -2.89645653E-01 -1.94798256E-01 -3.14610545E+00 -4.15485118E-01
 -2.08538791E+00 -4.97451778E+00 -1.29364212E-01 -4.59131022E+00 -4.23294640E+00
  2.82596161E-01 -7.15768237E+00 -1.08559642E+00  7.29176201E-01 -3.79513363E+00
  2.16636550E+00  2.20289731E-01 -1.60630749E+00 -6.97543366E+00 -2.27339224E-01
 -6.04976509E+00 -5.64343591E+00  5.03318005E-01  6.48323972E-01  8.34367756E-01
 -5.10367493E-01
Atom types                                 I   N=          12
           0           0           0           0           0           0
           0           0           0           0           0           0
Force Field                                I                0
MM charges                                 R   N=          12
  0.00000000E+00  0.00000000E+00  0.00000000E+00  0.00000000E+00  0.00000000E+00
  0.00000000E+00  0.00000000E+00  0.00000000E+00  0.00000000E+00  0.00000000E+00
  0.00000000E+00  0.00000000E+00
ONIOM Charges                              I   N=           4
           0           0           0           0
ONIOM Multiplicities                       I   N=           4
           1           0           0           0
Atom Layers                                I   N=          12
           1           1           1           1           1           1
           1           1           1           1           1           1
Atom Modifiers                             I   N=          12
           0           0           0           0           0           0
           0           0           0           0           0           0
Atom types                                 I   N=          12
           0           0           0           0           0           0
           0           0           0           0           0           0
Link Atoms                                 I   N=          12
           0           0           0           0           0           0
           0           0           0           0           0           0
Atom Modified MM Charges                   R   N=          12
  0.00000000E+00  0.00000000E+00  0.00000000E+00  0.00000000E+00  0.00000000E+00
  0.00000000E+00  0.00000000E+00  0.00000000E+00  0.00000000E+00  0.00000000E+00
  0.00000000E+00  0.00000000E+00
Link Distances                             R   N=          12
  0.00000000E+00  0.00000000E+00  0.00000000E+00  0.00000000E+00  0.00000000E+00
  0.00000000E+00  0.00000000E+00  0.00000000E+00  0.00000000E+00  0.00000000E+00
  0.00000000E+00  0.00000000E+00
MxBond                                     I                3
NBond                                      I   N=          12
           1           3           3           3           3           3
           3           1           1           1           1           1
IBond                                      I   N=          36
           5           0           0           3           7           8
           2           4           9           3           5          12
           1           4           6           5           7          10
           2           6          11           2           0           0
           3           0           0           6           0           0
           7           0           0           4           0           0
RBond                                      R   N=          36
  1.00000000E+00  0.00000000E+00  0.00000000E+00  1.50000000E+00  1.50000000E+00
  1.00000000E+00  1.50000000E+00  1.50000000E+00  1.00000000E+00  1.50000000E+00
  1.50000000E+00  1.00000000E+00  1.00000000E+00  1.50000000E+00  1.50000000E+00
  1.50000000E+00  1.50000000E+00  1.00000000E+00  1.50000000E+00  1.50000000E+00
  1.00000000E+00  1.00000000E+00  0.00000000E+00  0.00000000E+00  1.00000000E+00
  0.00000000E+00  0.00000000E+00  1.00000000E+00  0.00000000E+00  0.00000000E+00
  1.00000000E+00  0.00000000E+00  0.00000000E+00  1.00000000E+00  0.00000000E+00
  0.00000000E+00
Shell types                                I   N=          42
           0           0           0           0           0           1
           1           0           0           0           1           1
           0           0           0           1           1           0
           0           0           1           1           0           0
           0           1           1           0           0           0
           1           1           0           0           0           0
           0           0           0           0           0           0
Number of primitives per shell             I   N=          42
           2           1           3           2           1           2
           1           3           2           1           2           1
           3           2           1           2           1           3
           2           1           2           1           3           2
           1           2           1           3           2           1
           2           1           2           1           2           1
           2           1           2           1           2           1
Shell to atom map                          I   N=          42
           1           1           2           2           2           2
           2           3           3           3           3           3
           4           4           4           4           4           5
           5           5           5           5           6           6
           6           6           6           7           7           7
           7           7           8           8           9           9
          10          10          11          11          12          12
Primitive exponents                        R   N=          72
  5.44717800E+00  8.24547240E-01  1.83191580E-01  1.72256000E+02  2.59109000E+01
  5.53335000E+00  3.66498000E+00  7.70545000E-01  1.95857000E-01  3.66498000E+00
  7.70545000E-01  1.95857000E-01  1.72256000E+02  2.59109000E+01  5.53335000E+00
  3.66498000E+00  7.70545000E-01  1.95857000E-01  3.66498000E+00  7.70545000E-01
  1.95857000E-01  1.72256000E+02  2.59109000E+01  5.53335000E+00  3.66498000E+00
  7.70545000E-01  1.95857000E-01  3.66498000E+00  7.70545000E-01  1.95857000E-01
  1.72256000E+02  2.59109000E+01  5.53335000E+00  3.66498000E+00  7.70545000E-01
  1.95857000E-01  3.66498000E+00  7.70545000E-01  1.95857000E-01  1.72256000E+02
  2.59109000E+01  5.53335000E+00  3.66498000E+00  7.70545000E-01  1.95857000E-01
  3.66498000E+00  7.70545000E-01  1.95857000E-01  1.72256000E+02  2.59109000E+01
  5.53335000E+00  3.66498000E+00  7.70545000E-01  1.95857000E-01  3.66498000E+00
  7.70545000E-01  1.95857000E-01  5.44717800E+00  8.24547240E-01  1.83191580E-01
  5.44717800E+00  8.24547240E-01  1.83191580E-01  5.44717800E+00  8.24547240E-01
  1.83191580E-01  5.44717800E+00  8.24547240E-01  1.83191580E-01  5.44717800E+00
  8.24547240E-01  1.83191580E-01
Contraction coefficients                   R   N=          72
  1.56284979E-01  9.04690877E-01  1.00000000E+00  6.17669074E-02  3.58794043E-01
  7.00713084E-01 -3.95895162E-01  1.21583436E+00  1.00000000E+00  2.36459947E-01
  8.60618806E-01  1.00000000E+00  6.17669074E-02  3.58794043E-01  7.00713084E-01
 -3.95895162E-01  1.21583436E+00  1.00000000E+00  2.36459947E-01  8.60618806E-01
  1.00000000E+00  6.17669074E-02  3.58794043E-01  7.00713084E-01 -3.95895162E-01
  1.21583436E+00  1.00000000E+00  2.36459947E-01  8.60618806E-01  1.00000000E+00
  6.17669074E-02  3.58794043E-01  7.00713084E-01 -3.95895162E-01  1.21583436E+00
  1.00000000E+00  2.36459947E-01  8.60618806E-01  1.00000000E+00  6.17669074E-02
  3.58794043E-01  7.00713084E-01 -3.95895162E-01  1.21583436E+00  1.00000000E+00
  2.36459947E-01  8.60618806E-01  1.00000000E+00  6.17669074E-02  3.58794043E-01
  7.00713084E-01 -3.95895162E-01  1.21583436E+00  1.00000000E+00  2.36459947E-01
  8.60618806E-01  1.00000000E+00  1.56284979E-01  9.04690877E-01  1.00000000E+00
  1.56284979E-01  9.04690877E-01  1.00000000E+00  1.56284979E-01  9.04690877E-01
  1.00000000E+00  1.56284979E-01  9.04690877E-01  1.00000000E+00  1.56284979E-01
  9.04690877E-01  1.00000000E+00
Coordinates of each shell                  R   N=         126
  1.75624125E+00 -3.72347174E+00 -7.36225693E-01  1.75624125E+00 -3.72347174E+00
 -7.36225693E-01 -5.20664287E+00 -1.66296270E+00  4.08435626E-01 -5.20664287E+00
 -1.66296270E+00  4.08435626E-01 -5.20664287E+00 -1.66296270E+00  4.08435626E-01
 -5.20664287E+00 -1.66296270E+00  4.08435626E-01 -5.20664287E+00 -1.66296270E+00
  4.08435626E-01 -3.31605321E+00  1.65449622E-01  1.22314718E-01 -3.31605321E+00
  1.65449622E-01  1.22314718E-01 -3.31605321E+00  1.65449622E-01  1.22314718E-01
 -3.31605321E+00  1.65449622E-01  1.22314718E-01 -3.31605321E+00  1.65449622E-01
  1.22314718E-01 -8.10130906E-01 -5.76121752E-01 -2.89645653E-01 -8.10130906E-01
 -5.76121752E-01 -2.89645653E-01 -8.10130906E-01 -5.76121752E-01 -2.89645653E-01
 -8.10130906E-01 -5.76121752E-01 -2.89645653E-01 -8.10130906E-01 -5.76121752E-01
 -2.89645653E-01 -1.94798256E-01 -3.14610545E+00 -4.15485118E-01 -1.94798256E-01
 -3.14610545E+00 -4.15485118E-01 -1.94798256E-01 -3.14610545E+00 -4.15485118E-01
 -1.94798256E-01 -3.14610545E+00 -4.15485118E-01 -1.94798256E-01 -3.14610545E+00
 -4.15485118E-01 -2.08538791E+00 -4.97451778E+00 -1.29364212E-01 -2.08538791E+00
 -4.97451778E+00 -1.29364212E-01 -2.08538791E+00 -4.97451778E+00 -1.29364212E-01
 -2.08538791E+00 -4.97451778E+00 -1.29364212E-01 -2.08538791E+00 -4.97451778E+00
 -1.29364212E-01 -4.59131022E+00 -4.23294640E+00  2.82596161E-01 -4.59131022E+00
 -4.23294640E+00  2.82596161E-01 -4.59131022E+00 -4.23294640E+00  2.82596161E-01
 -4.59131022E+00 -4.23294640E+00  2.82596161E-01 -4.59131022E+00 -4.23294640E+00
  2.82596161E-01 -7.15768237E+00 -1.08559642E+00  7.29176201E-01 -7.15768237E+00
 -1.08559642E+00  7.29176201E-01 -3.79513363E+00  2.16636550E+00  2.20289731E-01
 -3.79513363E+00  2.16636550E+00  2.20289731E-01 -1.60630749E+00 -6.97543366E+00
 -2.27339224E-01 -1.60630749E+00 -6.97543366E+00 -2.27339224E-01 -6.04976509E+00
 -5.64343591E+00  5.03318005E-01 -6.04976509E+00 -5.64343591E+00  5.03318005E-01
  6.48323972E-01  8.34367756E-01 -5.10367493E-01  6.48323972E-01  8.34367756E-01
 -5.10367493E-01
Alpha Orbital Energies                     R   N=          66
 -1.11825731E+01 -1.11824592E+01 -1.11821824E+01 -1.11820630E+01 -1.11812918E+01
 -1.11809684E+01 -1.14752159E+00 -1.01079185E+00 -1.01002457E+00 -8.21545982E-01
 -8.20164023E-01 -7.11525945E-01 -6.38038239E-01 -6.18902289E-01 -5.88888300E-01
 -5.87319058E-01 -5.02422987E-01 -4.90226239E-01 -4.88952487E-01 -3.36634665E-01
 -3.36593653E-01  1.46809730E-01  1.46886460E-01  2.52787496E-01  3.19396306E-01
  3.21267758E-01  3.65082271E-01  3.66319675E-01  3.66495073E-01  3.67856482E-01
  5.00122348E-01  5.00625280E-01  5.15528625E-01  5.15767610E-01  7.98453445E-01
  8.12406526E-01  8.81877193E-01  9.05359427E-01  9.56936839E-01  9.99041060E-01
  9.99115122E-01  1.05339178E+00  1.05351657E+00  1.07717636E+00  1.07807258E+00
  1.10478703E+00  1.10496803E+00  1.13414906E+00  1.17468218E+00  1.27330493E+00
  1.30118202E+00  1.30678209E+00  1.40277356E+00  1.40616565E+00  1.40773534E+00
  1.55621623E+00  1.55887451E+00  1.59051223E+00  1.71307001E+00  1.72728221E+00
  1.72859176E+00  1.80234031E+00  1.80303229E+00  2.15806192E+00  2.15951797E+00
  2.74604842E+00
Alpha MO coefficients                      R   N=        4356
  1.58903929E-03  2.25597101E-03  4.84898921E-01  5.22476773E-02 -8.32114950E-02
  1.31202006E-03  2.38781310E-04 -2.09207819E-04 -3.44288848E-02  6.03744034E-03
  5.61702028E-03 -4.84898672E-01 -5.22476530E-02  8.32114804E-02  2.96193993E-04
  1.31654163E-03 -3.41785079E-05  4.36051825E-03 -3.51169207E-02 -1.06648846E-03
  1.34950512E-01  1.82308901E-02 -6.38352469E-02 -5.65847518E-04 -5.47238573E-04
  8.56350783E-05  2.43408829E-02  2.35403746E-02 -3.68373712E-03 -4.84899389E-01
 -5.22477261E-02  8.32115456E-02  1.31202148E-03  2.38780999E-04 -2.09208050E-04
 -3.44289000E-02  6.03743853E-03  5.61702269E-03  4.84899278E-01  5.22477154E-02
 -8.32115406E-02  2.96193710E-04  1.31654310E-03 -3.41784469E-05  4.36051812E-03
 -3.51169370E-02 -1.06648862E-03 -1.34950553E-01 -1.82308947E-02  6.38352533E-02
 -5.65847838E-04 -5.47238649E-04  8.56351311E-05  2.43408914E-02  2.35403689E-02
 -3.68373857E-03 -1.58903862E-03 -2.25597266E-03  1.58903809E-03  2.25597510E-03
 -1.58903907E-03 -2.25597211E-03  8.91130686E-04  5.82065072E-03 -8.91130662E-04
 -5.82065052E-03 -7.63736356E-04  2.12884400E-03  4.93714930E-01  5.11944307E-02
 -5.09414625E-02  1.30987011E-03 -3.06598682E-04 -2.14498187E-04 -1.43920155E-02
 -5.48872511E-04  2.31627550E-03 -4.93714639E-01 -5.11944024E-02  5.09414446E-02
 -2.41734115E-04  1.33960569E-03  5.28470060E-05 -1.20731997E-03 -1.45374302E-02
  4.45202970E-05  4.42025655E-08  6.36564856E-09 -2.88271100E-08 -1.05506680E-04
  1.11939159E-04  1.81790560E-05  6.28264513E-03 -6.66566890E-03 -1.08251483E-03
  4.93714274E-01  5.11943613E-02 -5.09413645E-02 -1.30986861E-03  3.06598653E-04
  2.14497942E-04  1.43919778E-02  5.48880894E-04 -2.31626933E-03 -4.93714245E-01
 -5.11943585E-02  5.09413609E-02  2.41734661E-04 -1.33960436E-03 -5.28470831E-05
  1.20732344E-03  1.45373919E-02 -4.45212362E-05 -1.16581928E-07 -1.48684620E-08
  4.18548528E-08  1.05506349E-04 -1.11940086E-04 -1.81790132E-05 -6.28262044E-03
  6.66569685E-03  1.08251114E-03 -7.63738359E-04  2.12884276E-03  7.63737720E-04
 -2.12883982E-03  7.63736252E-04 -2.12884365E-03  5.06551348E-10  3.45763398E-09
 -4.96333013E-10 -2.78613292E-09  9.98619822E-04 -4.87161467E-03  4.93469599E-01
  4.79645035E-02 -2.71347519E-02  3.20332959E-04 -9.78482783E-04 -6.17951353E-05
 -3.34805590E-05  5.83763174E-03  6.57413439E-05  4.93469904E-01  4.79645359E-02
 -2.71347964E-02  9.50109890E-04 -3.69418665E-04 -1.57105273E-04 -5.75525471E-03
  3.04052805E-04  9.31672010E-04  9.03568281E-08  9.92179710E-09 -7.54250486E-09
  1.15565815E-03 -1.22611870E-03 -1.99122728E-04 -7.61767607E-03  8.08212014E-03
  1.31254417E-03 -4.93470171E-01 -4.79645602E-02  2.71347964E-02  3.20333321E-04
 -9.78482979E-04 -6.17951946E-05 -3.34872267E-05  5.83763918E-03  6.57424901E-05
 -4.93470215E-01 -4.79645655E-02  2.71348138E-02  9.50109933E-04 -3.69418326E-04
 -1.57105279E-04 -5.75526233E-03  3.04052162E-04  9.31673245E-04  1.59139981E-07
  1.85647206E-08 -3.27602029E-08  1.15565945E-03 -1.22611738E-03 -1.99122923E-04
 -7.61768480E-03  8.08210827E-03  1.31254545E-03 -9.98618644E-04  4.87160976E-03
 -9.98619424E-04  4.87160937E-03  9.98620197E-04 -4.87161316E-03 -2.47983720E-10
 -1.72910193E-09  1.24422817E-10  2.93476746E-10 -9.85477250E-04  4.31717281E-03
  4.49807692E-01  4.41179936E-02 -3.23147747E-02  6.79801835E-05 -1.35505060E-04
 -1.23682703E-05 -3.17780381E-03  8.10999327E-03  5.96521469E-04  4.49807937E-01
  4.41180192E-02 -3.23148035E-02  1.30482772E-04 -7.50586898E-05 -2.18273872E-05
 -7.85063549E-03  3.59085002E-03  1.30370561E-03 -2.87469641E-01 -3.23390805E-02
  4.37420042E-02  1.37918598E-03  1.33382642E-03 -2.08725339E-04 -1.09975146E-02
 -1.06358209E-02  1.66435853E-03  4.49807296E-01  4.41179558E-02 -3.23147602E-02
 -6.79800893E-05  1.35504015E-04  1.23682441E-05  3.17780839E-03 -8.10998791E-03
 -5.96522150E-04  4.49807384E-01  4.41179647E-02 -3.23147658E-02 -1.30481971E-04
  7.50581260E-05  2.18272542E-05  7.85062992E-03 -3.59084505E-03 -1.30370467E-03
 -2.87469658E-01 -3.23390815E-02  4.37419978E-02 -1.37918482E-03 -1.33382755E-03
  2.08725141E-04  1.09975042E-02  1.06358257E-02 -1.66435682E-03 -9.85477980E-04
  4.31717763E-03 -9.85478470E-04  4.31717821E-03 -9.85477266E-04  4.31717364E-03
  1.96596561E-04  1.18266293E-03  1.96596598E-04  1.18266402E-03  8.37466258E-05
  4.09985817E-03 -9.46713920E-02 -6.90612358E-03 -2.02171782E-02 -2.09486286E-04
 -1.32977232E-03  2.00526855E-05 -1.15305861E-02  1.25576816E-02  1.99009796E-03
  9.46713037E-02  6.90611609E-03  2.02171782E-02 -1.32105458E-03 -1.50433066E-04
  2.11578609E-04  1.18501830E-02 -1.22485920E-02 -2.03846555E-03  6.85114922E-01
  6.89158555E-02 -6.30631429E-02 -7.69625986E-04 -7.44314716E-04  1.16474818E-04
  1.24234904E-02  1.20149095E-02 -1.88016491E-03  9.46712794E-02  6.90611368E-03
  2.02171799E-02 -2.09486749E-04 -1.32977217E-03  2.00527623E-05 -1.15305846E-02
  1.25576799E-02  1.99009769E-03 -9.46713959E-02 -6.90612388E-03 -2.02171786E-02
 -1.32105472E-03 -1.50432537E-04  2.11578635E-04  1.18501846E-02 -1.22485942E-02
 -2.03846584E-03 -6.85115150E-01 -6.89158774E-02  6.30631564E-02 -7.69625852E-04
 -7.44314582E-04  1.16474798E-04  1.24234914E-02  1.20149101E-02 -1.88016507E-03
 -8.37462494E-05 -4.09986036E-03  8.37465799E-05  4.09985835E-03 -8.37462377E-05
 -4.09986044E-03  1.74600715E-03 -3.69013336E-03 -1.74600656E-03  3.69013061E-03
 -7.96651088E-04  4.94026116E-03  2.02853381E-01  1.67464606E-02  3.03272485E-03
 -1.28822419E-03  4.48206020E-04  2.12469623E-04  5.19217922E-03 -5.73633529E-03
 -8.96977619E-04  2.02853438E-01  1.67464654E-02  3.03273052E-03 -3.82383270E-04
  1.32425622E-03  7.53801084E-05  5.41662611E-03 -5.51927857E-03 -9.30945390E-04
  6.36069676E-01  6.16926087E-02 -4.17188724E-02  1.51176484E-04  1.46204569E-04
 -2.28789737E-05  3.85724807E-03  3.73039220E-03 -5.83754023E-04  2.02853398E-01
  1.67464614E-02  3.03273356E-03  1.28822412E-03 -4.48206579E-04 -2.12469617E-04
 -5.19218357E-03  5.73634036E-03  8.96978377E-04  2.02853379E-01  1.67464605E-02
  3.03272412E-03  3.82382796E-04 -1.32425630E-03 -7.53800323E-05 -5.41662179E-03
  5.51927394E-03  9.30944645E-04  6.36069414E-01  6.16925823E-02 -4.17188483E-02
 -1.51176731E-04 -1.46204904E-04  2.28790110E-05 -3.85724366E-03 -3.73038729E-03
  5.83753360E-04 -7.96651164E-04  4.94025980E-03 -7.96651158E-04  4.94026147E-03
 -7.96651144E-04  4.94025967E-03 -1.54634748E-03  6.97798928E-03 -1.54634815E-03
  6.97799069E-03  3.31552235E-02 -4.73918659E-03 -9.71350386E-02  1.08921076E-01
  1.83459471E-01  5.60819467E-02 -1.66654055E-02 -9.22029082E-03  1.10479518E-02
 -3.33700229E-03 -1.81692367E-03 -9.71350390E-02  1.08921076E-01  1.83459471E-01
  1.38392550E-02 -5.75188287E-02 -2.82730265E-03  2.77951273E-03 -1.13335103E-02
 -5.65582162E-04 -9.73769601E-02  1.09164867E-01  1.84047358E-01 -4.20063049E-02
 -4.06248095E-02  6.35721350E-03 -8.25805319E-03 -7.98646388E-03  1.24976973E-03
 -9.71350388E-02  1.08921076E-01  1.83459471E-01 -5.60819468E-02  1.66654058E-02
  9.22029082E-03 -1.10479518E-02  3.33700224E-03  1.81692365E-03 -9.71350388E-02
  1.08921076E-01  1.83459471E-01 -1.38392547E-02  5.75188287E-02  2.82730268E-03
 -2.77951281E-03  1.13335104E-02  5.65582227E-04 -9.73769597E-02  1.09164866E-01
  1.84047358E-01  4.20063047E-02  4.06248094E-02 -6.35721347E-03  8.25805305E-03
  7.98646384E-03 -1.24976969E-03  3.31552235E-02 -4.73918659E-03  3.31552236E-02
 -4.73918666E-03  3.31552234E-02 -4.73918660E-03  3.40442402E-02 -4.98237640E-03
  3.40442403E-02 -4.98237638E-03  3.54918097E-02  7.45953966E-03  6.81413766E-02
 -7.30547626E-02 -1.60481469E-01  1.09929314E-02  8.89663000E-02 -8.53968926E-04
 -3.22296431E-03  1.05282908E-02  6.28803816E-04 -6.81414563E-02  7.30548481E-02
  1.60481657E-01  8.82431609E-02  7.00613841E-03 -1.41643723E-02  1.02333575E-02
 -3.74846067E-03 -1.68975332E-03 -1.36856679E-01  1.46671565E-01  3.23700547E-01
 -1.96718476E-02 -1.90248355E-02  2.97712827E-03 -9.24383284E-03 -8.93981847E-03
  1.39895720E-03 -6.81413762E-02  7.30547622E-02  1.60481468E-01  1.09929314E-02
  8.89663003E-02 -8.53968921E-04 -3.22296431E-03  1.05282908E-02  6.28803813E-04
  6.81414565E-02 -7.30548483E-02 -1.60481658E-01  8.82431606E-02  7.00613824E-03
 -1.41643724E-02  1.02333575E-02 -3.74846076E-03 -1.68975336E-03  1.36856679E-01
 -1.46671565E-01 -3.23700547E-01 -1.96718475E-02 -1.90248356E-02  2.97712823E-03
 -9.24383278E-03 -8.93981852E-03  1.39895716E-03 -3.54918100E-02 -7.45953969E-03
  3.54918513E-02  7.45954847E-03 -3.54918514E-02 -7.45954849E-03 -7.29510999E-02
 -1.51995840E-02  7.29510997E-02  1.51995840E-02 -6.17303267E-02 -1.31980653E-02
 -1.18374027E-01  1.26868540E-01  2.79929226E-01  3.79300360E-02  4.21731558E-02
 -5.68356075E-03  1.21184667E-02  1.85378284E-03 -1.93598247E-03 -1.18373981E-01
  1.26868491E-01  2.79929118E-01 -4.33446271E-02 -3.64285097E-02  6.61650731E-03
 -2.38894840E-03 -1.21765061E-02  2.59562720E-04  4.61514990E-08 -4.94182378E-08
 -1.09416359E-07 -6.97440998E-02  7.39963484E-02  1.20170785E-02 -7.14013432E-03
  7.57546837E-03  1.23026260E-03  1.18374027E-01 -1.26868540E-01 -2.79929226E-01
  3.79300361E-02  4.21731557E-02 -5.68356073E-03  1.21184667E-02  1.85378284E-03
 -1.93598244E-03  1.18373981E-01 -1.26868491E-01 -2.79929117E-01 -4.33446272E-02
 -3.64285100E-02  6.61650723E-03 -2.38894838E-03 -1.21765061E-02  2.59562630E-04
 -4.61236920E-08  4.93823523E-08  1.09369159E-07 -6.97440996E-02  7.39963482E-02
  1.20170785E-02 -7.14013434E-03  7.57546831E-03  1.23026263E-03  6.17303268E-02
  1.31980653E-02  6.17303027E-02  1.31980602E-02 -6.17303026E-02 -1.31980602E-02
  2.46661238E-08  5.19495342E-09 -2.46380421E-08 -5.19721297E-09 -5.18401910E-02
 -2.59785695E-02  5.38011496E-02 -5.55671413E-02 -1.72393067E-01 -2.08073712E-02
 -1.58861627E-01  1.71492888E-03 -1.29615343E-02 -5.58010027E-02  1.51438295E-03
  5.38011098E-02 -5.55671002E-02 -1.72392940E-01  1.57624961E-01  1.37024541E-02
 -2.52889325E-02  5.56282239E-02  1.05329832E-02 -8.86595736E-03 -1.07633232E-01
  1.11089582E-01  3.45281824E-01  3.95976822E-02  3.82954560E-02 -5.99269307E-03
  6.77691279E-03  6.55405484E-03 -1.02561437E-03  5.38011496E-02 -5.55671413E-02
 -1.72393067E-01  2.08073712E-02  1.58861627E-01 -1.71492881E-03  1.29615344E-02
  5.58010026E-02 -1.51438293E-03  5.38011098E-02 -5.55671002E-02 -1.72392939E-01
 -1.57624961E-01 -1.37024544E-02  2.52889324E-02 -5.56282239E-02 -1.05329832E-02
  8.86595732E-03 -1.07633232E-01  1.11089582E-01  3.45281824E-01 -3.95976825E-02
 -3.82954561E-02  5.99269321E-03 -6.77691296E-03 -6.55405494E-03  1.02561446E-03
 -5.18401911E-02 -2.59785695E-02 -5.18401524E-02 -2.59785502E-02 -5.18401522E-02
 -2.59785501E-02  1.07992380E-01  5.32386497E-02  1.07992379E-01  5.32386496E-02
  9.11927756E-02  4.57275286E-02 -9.31621273E-02  9.61136632E-02  2.99043931E-01
 -6.83987381E-02 -7.55505280E-02  1.02542566E-02 -1.61169796E-02 -2.98769316E-02
  2.29142945E-03  9.31621500E-02 -9.61136867E-02 -2.99044004E-01 -7.76697730E-02
 -6.57141696E-02  1.18516793E-02 -3.02090970E-02 -1.49256006E-02  4.71953592E-03
 -2.30836141E-08  2.37625598E-08  7.43821980E-08  1.25177925E-01 -1.32809894E-01
 -2.15684614E-02  4.55266971E-02 -4.83024162E-02 -7.84436085E-03 -9.31621272E-02
  9.61136632E-02  2.99043931E-01  6.83987378E-02  7.55505287E-02 -1.02542565E-02
  1.61169795E-02  2.98769317E-02 -2.29142944E-03  9.31621500E-02 -9.61136868E-02
 -2.99044004E-01  7.76697728E-02  6.57141695E-02 -1.18516793E-02  3.02090969E-02
  1.49256006E-02 -4.71953599E-03 -2.28700509E-08  2.35439489E-08  7.36221782E-08
 -1.25177925E-01  1.32809893E-01  2.15684614E-02 -4.55266971E-02  4.83024160E-02
  7.84436088E-03  9.11927761E-02  4.57275288E-02 -9.11927977E-02 -4.57275397E-02
 -9.11927976E-02 -4.57275397E-02  2.31415262E-08  1.14717811E-08  2.32028703E-08
  1.15323750E-08  1.03339750E-01  6.68163603E-02 -1.15900397E-02  7.22526001E-03
  5.80279835E-02 -1.58412109E-01  4.98743305E-02  2.60730788E-02 -1.01570406E-01
  3.14258505E-02  1.67117815E-02 -1.15900398E-02  7.22526005E-03  5.80279838E-02
 -4.18526566E-02  1.62600399E-01  8.43302866E-03 -2.62901772E-02  1.04230278E-01
  5.31890876E-03 -9.88210433E-03  5.63380331E-03  5.18252007E-02  1.20907676E-01
  1.16931289E-01 -1.82981080E-02  7.74532285E-02  7.49059626E-02 -1.17217333E-02
 -1.15900398E-02  7.22526009E-03  5.80279839E-02  1.58412109E-01 -4.98743306E-02
 -2.60730786E-02  1.01570406E-01 -3.14258505E-02 -1.67117814E-02 -1.15900399E-02
  7.22526017E-03  5.80279841E-02  4.18526568E-02 -1.62600399E-01 -8.43302862E-03
  2.62901773E-02 -1.04230278E-01 -5.31890872E-03 -9.88210427E-03  5.63380327E-03
  5.18252004E-02 -1.20907676E-01 -1.16931289E-01  1.82981082E-02 -7.74532283E-02
 -7.49059624E-02  1.17217335E-02  1.03339751E-01  6.68163603E-02  1.03339751E-01
  6.68163605E-02  1.03339750E-01  6.68163603E-02  1.03316608E-01  6.59937421E-02
  1.03316608E-01  6.59937422E-02 -1.25561387E-01 -7.29409360E-02 -6.12824323E-02
  6.42225621E-02  1.95129474E-01 -1.00798775E-01  2.73831214E-02  1.65455027E-02
 -1.14639822E-01  3.28364874E-02  1.88349283E-02  6.12824325E-02 -6.42225622E-02
 -1.95129475E-01  2.23391382E-02 -1.03262394E-01 -4.67145990E-03  2.70764488E-02
 -1.17520094E-01 -5.58313061E-03 -5.98705912E-02  6.27323410E-02  1.91685620E-01
  8.48315532E-02  8.20416320E-02 -1.28383653E-02  9.28647805E-02  8.98106635E-02
 -1.40541099E-02  6.12824324E-02 -6.42225621E-02 -1.95129475E-01 -1.00798775E-01
  2.73831215E-02  1.65455026E-02 -1.14639821E-01  3.28364875E-02  1.88349282E-02
 -6.12824326E-02  6.42225623E-02  1.95129475E-01  2.23391372E-02 -1.03262394E-01
 -4.67145973E-03  2.70764483E-02 -1.17520094E-01 -5.58313046E-03  5.98705912E-02
 -6.27323409E-02 -1.91685620E-01  8.48315540E-02  8.20416318E-02 -1.28383656E-02
  9.28647810E-02  8.98106633E-02 -1.40541103E-02  1.25561388E-01  7.29409361E-02
 -1.25561386E-01 -7.29409352E-02  1.25561386E-01  7.29409353E-02 -1.33439318E-01
 -7.69652374E-02  1.33439318E-01  7.69652372E-02  1.87592673E-04  1.51726857E-04
 -2.13071705E-05  2.39271188E-05  1.93753029E-04  6.83356510E-02  2.34629790E-01
 -8.59978168E-03  3.98319649E-02  1.36543008E-01 -5.01497165E-03 -2.13064615E-05
  2.39262316E-05  1.93751182E-04 -2.34543534E-01 -5.82883622E-02  3.72378050E-02
 -1.36495771E-01 -3.39856959E-02  2.16703811E-02 -3.37706966E-10  2.40938038E-10
  1.70854360E-09  1.66418084E-01 -1.76564442E-01 -2.86742415E-02  9.71283487E-02
 -1.03050175E-01 -1.67354512E-02  2.13072430E-05 -2.39271478E-05 -1.93753450E-04
  6.83356505E-02  2.34629791E-01 -8.59978147E-03  3.98319645E-02  1.36543008E-01
 -5.01497150E-03  2.13063789E-05 -2.39262035E-05 -1.93750727E-04 -2.34543533E-01
 -5.82883632E-02  3.72378049E-02 -1.36495771E-01 -3.39856967E-02  2.16703810E-02
  2.95436069E-10 -2.05225207E-10 -1.48831660E-09  1.66418083E-01 -1.76564442E-01
 -2.86742415E-02  9.71283486E-02 -1.03050174E-01 -1.67354513E-02 -1.87593183E-04
 -1.51727176E-04 -1.87592870E-04 -1.51726881E-04  1.87593611E-04  1.51727352E-04
 -1.89612649E-09 -1.37469445E-09  1.86331145E-09  1.42290995E-09  8.03325654E-02
  6.37923275E-02 -8.52883290E-03  1.09206508E-02  1.22766872E-02  1.07157811E-01
 -9.78481127E-02 -1.82997934E-02  9.09522659E-02 -6.24856923E-02 -1.53197392E-02
  8.52883543E-03 -1.09206540E-02 -1.22766914E-02 -9.15341625E-02  1.12957966E-01
  1.59353185E-02 -5.74113516E-02  9.49235457E-02  1.02436741E-02  2.25223333E-02
 -2.74494089E-02 -4.04315728E-02  1.81413442E-01  1.75447148E-01 -2.74550208E-02
  1.40825875E-01  1.36194420E-01 -2.13125184E-02  8.52883286E-03 -1.09206508E-02
 -1.22766869E-02  1.07157811E-01 -9.78481124E-02 -1.82997932E-02  9.09522655E-02
 -6.24856920E-02 -1.53197390E-02 -8.52883529E-03  1.09206539E-02  1.22766908E-02
 -9.15341622E-02  1.12957966E-01  1.59353184E-02 -5.74113515E-02  9.49235458E-02
  1.02436740E-02 -2.25223334E-02  2.74494090E-02  4.04315734E-02  1.81413442E-01
  1.75447149E-01 -2.74550211E-02  1.40825875E-01  1.36194420E-01 -2.13125187E-02
 -8.03325657E-02 -6.37923276E-02  8.03325841E-02  6.37923425E-02 -8.03325842E-02
 -6.37923427E-02 -1.49213824E-01 -1.19613282E-01  1.49213824E-01  1.19613282E-01
 -1.32346493E-01 -1.06949787E-01  1.77088722E-02 -2.20940978E-02 -2.91329189E-02
 -2.20514554E-01  2.76095388E-02  3.58622964E-02 -1.71533988E-01  3.03455793E-02
  2.79882531E-02  1.77088704E-02 -2.20940957E-02 -2.91329151E-02 -1.70221173E-02
  2.24409529E-01  5.06585106E-03 -2.19870342E-02  1.74974242E-01  5.35589067E-03
 -1.37610931E-09  1.69770265E-09  2.26751195E-09  4.98798523E-02 -5.29210092E-02
 -8.59442045E-03  2.70870744E-02 -2.87385706E-02 -4.66716920E-03 -1.77088721E-02
  2.20940977E-02  2.91329184E-02 -2.20514554E-01  2.76095389E-02  3.58622963E-02
 -1.71533988E-01  3.03455793E-02  2.79882530E-02 -1.77088704E-02  2.20940957E-02