This is Gaussian file created by HARLEM                                 
SP        RHF                                                         Gen                 
Number of atoms                            I                6
Info1-9                                    I   N=           9
          41          41           0           0           0         110
           1           1           2
Charge                                     I                0
Multiplicity                               I                1
Number of electrons                        I               16
Number of alpha electrons                  I                8
Number of beta electrons                   I                8
Number of basis functions                  I               12
Number of independent functions            I               12
Number of point charges in /Mol/           I                0
Number of translation vectors              I                0
Atomic numbers                             I   N=           6
           6           6           1           1           1           1
Nuclear charges                            R   N=           6
  6.00000000E+00  6.00000000E+00  1.00000000E+00  1.00000000E+00  1.00000000E+00
  1.00000000E+00
Current cartesian coordinates              R   N=          18
  0.00000000E+00  1.24265745E+00  0.00000000E+00  0.00000000E+00 -1.24265745E+00
  0.00000000E+00  0.00000000E+00  2.31509215E+00  1.72224160E+00  0.00000000E+00
 -2.31509215E+00  1.72224160E+00  0.00000000E+00  2.31509215E+00 -1.72224160E+00
  0.00000000E+00 -2.31509215E+00 -1.72224160E+00
Force Field                                I                0
Int Atom Types                             I   N=           6
           0           0           0           0           0           0
MM charges                                 R   N=           6
  0.00000000E+00  0.00000000E+00  0.00000000E+00  0.00000000E+00  0.00000000E+00
  0.00000000E+00
Integer atomic weights                     I   N=           6
          12          12           1           1           1           1
Real atomic weights                        R   N=           6
  1.20000000E+01  1.20000000E+01  1.00782504E+00  1.00782504E+00  1.00782504E+00
  1.00782504E+00
Atom fragment info                         I   N=           6
           0           0           0           0           0           0
Atom residue num                           I   N=           6
           0           0           0           0           0           0
Nuclear spins                              I   N=           6
           0           0           1           1           1           1
Nuclear ZEff                               R   N=           6
 -3.60000000E+00 -3.60000000E+00 -1.00000000E+00 -1.00000000E+00 -1.00000000E+00
 -1.00000000E+00
Nuclear QMom                               R   N=           6
  0.00000000E+00  0.00000000E+00  0.00000000E+00  0.00000000E+00  0.00000000E+00
  0.00000000E+00
Nuclear GFac                               R   N=           6
  0.00000000E+00  0.00000000E+00  2.79284600E+00  2.79284600E+00  2.79284600E+00
  2.79284600E+00
MicOpt                                     I   N=           6
          -1          -1          -1          -1          -1          -1
Number of contracted shells                I                8
Number of primitive shells                 I               48
Pure/Cartesian d shells                    I                0
Pure/Cartesian f shells                    I                0
Highest angular momentum                   I                1
Largest degree of contraction              I                6
Shell types                                I   N=           8
           0           1           0           1           0           0
           0           0
Number of primitives per shell             I   N=           8
           6           6           6           6           6           6
           6           6
Shell to atom map                          I   N=           8
           1           1           2           2           3           4
           5           6
Primitive exponents                        R   N=          48
  3.04972395E+01  6.03619960E+00  1.87604630E+00  7.21782600E-01  3.13470700E-01
  1.43686600E-01  3.04972395E+01  6.03619960E+00  1.87604630E+00  7.21782600E-01
  3.13470700E-01  1.43686600E-01  3.04972395E+01  6.03619960E+00  1.87604630E+00
  7.21782600E-01  3.13470700E-01  1.43686600E-01  3.04972395E+01  6.03619960E+00
  1.87604630E+00  7.21782600E-01  3.13470700E-01  1.43686600E-01  3.55232212E+01
  6.51314370E+00  1.82214290E+00  6.25955300E-01  2.43076700E-01  1.00112400E-01
  3.55232212E+01  6.51314370E+00  1.82214290E+00  6.25955300E-01  2.43076700E-01
  1.00112400E-01  3.55232212E+01  6.51314370E+00  1.82214290E+00  6.25955300E-01
  2.43076700E-01  1.00112400E-01  3.55232212E+01  6.51314370E+00  1.82214290E+00
  6.25955300E-01  2.43076700E-01  1.00112400E-01
Contraction coefficients                   R   N=          48
 -1.32527897E-02 -4.69917088E-02 -3.37853692E-02  2.50241784E-01  5.95117235E-01
  2.40706174E-01  3.75969994E-03  3.76793694E-02  1.73896737E-01  4.18036423E-01
  4.25859543E-01  1.01708298E-01 -1.32527897E-02 -4.69917088E-02 -3.37853692E-02
  2.50241784E-01  5.95117235E-01  2.40706174E-01  3.75969994E-03  3.76793694E-02
  1.73896737E-01  4.18036423E-01  4.25859543E-01  1.01708298E-01  9.16360026E-03
  4.93614914E-02  1.68538305E-01  3.70562811E-01  4.16491542E-01  1.30334084E-01
  9.16360026E-03  4.93614914E-02  1.68538305E-01  3.70562811E-01  4.16491542E-01
  1.30334084E-01  9.16360026E-03  4.93614914E-02  1.68538305E-01  3.70562811E-01
  4.16491542E-01  1.30334084E-01  9.16360026E-03  4.93614914E-02  1.68538305E-01
  3.70562811E-01  4.16491542E-01  1.30334084E-01
Coordinates of each shell                  R   N=          24
  0.00000000E+00  1.24265745E+00  0.00000000E+00  0.00000000E+00  1.24265745E+00
  0.00000000E+00  0.00000000E+00 -1.24265745E+00  0.00000000E+00  0.00000000E+00
 -1.24265745E+00  0.00000000E+00  0.00000000E+00  2.31509215E+00  1.72224160E+00
  0.00000000E+00 -2.31509215E+00  1.72224160E+00  0.00000000E+00  2.31509215E+00
 -1.72224160E+00  0.00000000E+00 -2.31509215E+00 -1.72224160E+00
Constraint Structure                       R   N=          18
  0.00000000E+00  1.24265745E+00  0.00000000E+00  0.00000000E+00 -1.24265745E+00
  0.00000000E+00  0.00000000E+00  2.31509215E+00  1.72224160E+00  0.00000000E+00
 -2.31509215E+00  1.72224160E+00  0.00000000E+00  2.31509215E+00 -1.72224160E+00
  0.00000000E+00 -2.31509215E+00 -1.72224160E+00
Num ILSW                                   I              100
ILSW                                       I   N=         100
           0           0           0           0           2           0
           0           0           0           0           0          -1
           0           0           0           0           0           0
           0           0           0           0           0           0
           1           1           0           0           0           0
           0           0      100000           0          -1           0
           0           0           0           0           0           0
           0           0           0           1           0           0
           0           0           1           0           0           0
           0           0           4          40           0           0
           0           0           0           0           0           0
           0           0           0           0           0           0
           0           0           0           0           0           0
           0           0           0           0           0           0
           0           0           0           0           0           0
           0           0           0           0           0           0
           0           0           0           0
Num RLSW                                   I               40
RLSW                                       R   N=          40
  1.00000000E+00  1.00000000E+00  1.00000000E+00  1.00000000E+00  1.00000000E+00
  0.00000000E+00  0.00000000E+00  1.00000000E+00  0.00000000E+00  0.00000000E+00
  0.00000000E+00  0.00000000E+00  1.00000000E+00  0.00000000E+00  0.00000000E+00
  0.00000000E+00  0.00000000E+00  1.00000000E+00  0.00000000E+00  0.00000000E+00
  0.00000000E+00  0.00000000E+00  1.00000000E+00  0.00000000E+00  0.00000000E+00
  0.00000000E+00  0.00000000E+00  1.00000000E+00  0.00000000E+00  0.00000000E+00
  0.00000000E+00  0.00000000E+00  0.00000000E+00  0.00000000E+00  0.00000000E+00
  0.00000000E+00  0.00000000E+00  0.00000000E+00  1.00000000E+00  1.00000000E+00
MxBond                                     I                3
NBond                                      I   N=           6
           3           3           1           1           1           1
IBond                                      I   N=          18
           2           3           5           1           4           6
           1           0           0           2           0           0
           1           0           0           2           0           0
RBond                                      R   N=          18
  2.00000000E+00  1.00000000E+00  1.00000000E+00  2.00000000E+00  1.00000000E+00
  1.00000000E+00  1.00000000E+00  0.00000000E+00  0.00000000E+00  1.00000000E+00
  0.00000000E+00  0.00000000E+00  1.00000000E+00  0.00000000E+00  0.00000000E+00
  1.00000000E+00  0.00000000E+00  0.00000000E+00
Virial Ratio                               R      2.643412282442160E+00
SCF Energy                                 R     -3.333587635425931E+01
Total Energy                               R     -3.333587635425931E+01
RMS Density                                R      6.972569107887900E-09
External E-field                           R   N=          35
  0.00000000E+00  0.00000000E+00  0.00000000E+00  0.00000000E+00  0.00000000E+00
  0.00000000E+00  0.00000000E+00  0.00000000E+00  0.00000000E+00  0.00000000E+00
  0.00000000E+00  0.00000000E+00  0.00000000E+00  0.00000000E+00  0.00000000E+00
  0.00000000E+00  0.00000000E+00  0.00000000E+00  0.00000000E+00  0.00000000E+00
  0.00000000E+00  0.00000000E+00  0.00000000E+00  0.00000000E+00  0.00000000E+00
  0.00000000E+00  0.00000000E+00  0.00000000E+00  0.00000000E+00  0.00000000E+00
  0.00000000E+00  0.00000000E+00  0.00000000E+00  0.00000000E+00  0.00000000E+00
IOpCl                                      I                0
IROHF                                      I                0
Alpha Orbital Energies                     R   N=          12
 -1.94102324E+00 -1.74424678E+00 -7.84197448E-01 -7.67755124E-01 -6.34409548E-01
 -6.14399736E-01 -4.15451625E-01 -2.94684069E-01  3.30184359E-01  4.22890243E-01
  4.76182283E-01  5.79824432E-01
Alpha MO coefficients                      R   N=         144
  6.58600581E-01  3.46788384E-16  7.33329033E-03  4.64132325E-16  6.58600581E-01
 -4.27858297E-16 -7.33329033E-03  2.95482480E-17 -7.51914778E-02 -7.51914778E-02
 -7.51914778E-02 -7.51914778E-02  1.04305221E+00  1.06052692E-15 -3.85583250E-02
  4.83715969E-16 -1.04305221E+00  1.67598596E-16 -3.85583250E-02  1.85831221E-15
 -7.82365791E-02  7.82365791E-02 -7.82365791E-02  7.82365791E-02  1.16700659E-01
 -3.07817070E-15  5.79257634E-01 -4.03838907E-14  1.16700659E-01  7.79957564E-15
 -5.79257634E-01 -3.96398478E-14  1.07055042E-01  1.07055042E-01  1.07055042E-01
  1.07055042E-01  7.72739388E-15  3.91806454E-15  4.38418579E-14  5.24448018E-01
  9.94370032E-15 -4.68665155E-15 -4.42845516E-14  5.24448018E-01  1.31090680E-01
  1.31090680E-01 -1.31090680E-01 -1.31090680E-01  2.00676588E-15 -9.55444625E-15
 -1.17058763E-15  6.06621016E-01 -1.77168419E-15 -4.19033526E-15 -1.70363920E-15
 -6.06621016E-01  1.95064795E-01 -1.95064795E-01 -1.95064795E-01  1.95064795E-01
 -6.21113826E-16  6.33067963E-01 -2.21447803E-15  7.15535931E-15 -7.49452093E-16
  6.33067963E-01  1.28896248E-15 -5.34887764E-15  1.59980481E-15 -2.57231780E-15
 -1.35544630E-15  3.10182492E-15 -4.11643874E-16  8.15183923E-01  2.99505877E-15
 -6.51569884E-16  3.14894210E-16 -8.15183923E-01 -1.87431413E-15 -3.44833302E-15
  1.14167566E-15  2.77355480E-16  1.58331336E-16  1.97271466E-15  9.18347177E-01
 -3.97295393E-16 -8.14352712E-01 -5.31625214E-16 -9.18347177E-01 -2.44853625E-16
 -8.14352712E-01  6.60332887E-16 -3.42423333E-01  3.42423333E-01 -3.42423333E-01
  3.42423333E-01 -6.49502989E-01 -2.88533801E-16 -4.45271824E-01 -5.42415207E-15
 -6.49502989E-01  3.88266437E-16  4.45271824E-01  3.86383665E-15  6.65241147E-01
  6.65241147E-01  6.65241147E-01  6.65241147E-01 -1.29303780E-15 -1.18301769E-16
 -2.22011104E-14 -6.15428586E-01  3.24648891E-15 -2.73530565E-16 -2.36670352E-14
 -6.15428586E-01  6.68544500E-01  6.68544500E-01 -6.68544500E-01 -6.68544500E-01
  1.00099805E-01  2.96089698E-16  8.92432876E-01 -1.42675726E-14 -1.00099805E-01
  3.45344664E-17  8.92432876E-01 -1.83878173E-14 -5.98327961E-01  5.98327961E-01
 -5.98327961E-01  5.98327961E-01 -4.18518792E-15 -1.18695500E-16 -4.11802191E-15
  8.45970483E-01 -2.96523571E-15  1.07656238E-16  3.62856658E-16 -8.45970483E-01
 -6.84740062E-01  6.84740062E-01  6.84740062E-01 -6.84740062E-01
Total SCF Density                          R   N=          78
  4.75738643E+00 -2.36544806E-16  2.13059975E+00 -1.43129481E+00 -9.16511354E-16
  2.00050054E+00  1.75827683E-15  5.15145463E-16 -1.38464356E-15  1.28606956E+00
 -2.96789135E+00 -2.17983356E-15  1.72101263E+00 -5.66520550E-16  4.75738643E+00
  1.04147910E-15 -5.27499564E-01  1.72864432E-15  1.22254969E-16 -1.05352725E-16
  2.13059975E+00 -1.72101263E+00  2.70249465E-15  6.58127799E-01 -9.09712250E-16
  1.43129481E+00 -3.95595927E-15  2.00050054E+00  1.54693133E-15  3.30704073E-15
  2.64026916E-16 -1.85886668E-01 -1.72314516E-15 -9.82274236E-16  3.21177127E-16
  1.28606956E+00 -8.66192189E-01  5.81616899E-16  6.86662181E-01  3.74161303E-01
  7.18081161E-01 -8.23534488E-16  4.40817983E-01 -9.91603136E-02  3.91448564E-01
  7.18081161E-01  1.13264229E-15 -4.40817983E-01 -9.91603136E-02 -8.66192189E-01
 -1.71022646E-15 -6.86662181E-01  3.74161303E-01 -2.54251337E-01  3.91448564E-01
 -8.66192189E-01  6.37111750E-16  6.86662181E-01 -3.74161303E-01  7.18081161E-01
  2.76498178E-15  4.40817983E-01  9.91603136E-02  1.70508401E-01 -1.70789306E-01
  3.91448564E-01  7.18081161E-01  1.57150595E-15 -4.40817983E-01  9.91603136E-02
 -8.66192189E-01  1.89790821E-15 -6.86662181E-01 -3.74161303E-01 -1.70789306E-01
  1.70508401E-01 -2.54251337E-01  3.91448564E-01
QEq coupling tensors                       R   N=          36
  1.05902730E+00  8.38590217E-17 -2.76648827E-01  2.57819666E-16 -2.91780489E-15
 -7.82378469E-01  1.05902730E+00 -8.03030346E-15 -2.76648827E-01 -4.15991543E-16
  8.32667268E-16 -7.82378469E-01  2.25010452E-01 -4.88353225E-17  4.72231080E-03
 -5.77469253E-17 -2.58619236E-01 -2.29732762E-01  2.25010452E-01 -1.10105612E-16
  4.72231080E-03 -2.15855657E-16  2.58619236E-01 -2.29732762E-01  2.25010452E-01
 -1.25314354E-17  4.72231080E-03  3.59207323E-17  2.58619236E-01 -2.29732762E-01
  2.25010452E-01  1.48776038E-16  4.72231080E-03  6.21500629E-16 -2.58619236E-01
 -2.29732762E-01
Mulliken Charges                           R   N=           6
 -1.16477506E+00 -1.16477506E+00  5.82387529E-01  5.82387529E-01  5.82387529E-01
  5.82387529E-01
ONIOM Charges                              I   N=          16
           0           0           0           0           0           0
           0           0           0           0           0           0
           0           0           0           0
ONIOM Multiplicities                       I   N=          16
           1           0           0           0           0           0
           0           0           0           0           0           0
           0           0           0           0
Atom Layers                                I   N=           6
           1           1           1           1           1           1
Atom Modifiers                             I   N=           6
           0           0           0           0           0           0
Force Field                                I                0
Int Atom Modified Types                    I   N=           6
           0           0           0           0           0           0
Link Atoms                                 I   N=           6
           0           0           0           0           0           0
Atom Modified MM Charges                   R   N=           6
  0.00000000E+00  0.00000000E+00  0.00000000E+00  0.00000000E+00  0.00000000E+00
  0.00000000E+00
Link Distances                             R   N=          24
  0.00000000E+00  0.00000000E+00  0.00000000E+00  0.00000000E+00  0.00000000E+00
  0.00000000E+00  0.00000000E+00  0.00000000E+00  0.00000000E+00  0.00000000E+00
  0.00000000E+00  0.00000000E+00  0.00000000E+00  0.00000000E+00  0.00000000E+00
  0.00000000E+00  0.00000000E+00  0.00000000E+00  0.00000000E+00  0.00000000E+00
  0.00000000E+00  0.00000000E+00  0.00000000E+00  0.00000000E+00
Cartesian Gradient                         R   N=          18
  0.00000000E+00  0.00000000E+00  0.00000000E+00  0.00000000E+00  0.00000000E+00
  0.00000000E+00  0.00000000E+00  0.00000000E+00  0.00000000E+00  0.00000000E+00
  0.00000000E+00  0.00000000E+00  0.00000000E+00  0.00000000E+00  0.00000000E+00
  0.00000000E+00  0.00000000E+00  0.00000000E+00
Dipole Moment                              R   N=           3
 -1.08467319E-15 -1.99562589E-14  3.37924133E-15
Quadrupole Moment                          R   N=           6
 -4.66806483E+00  1.85432229E+00  2.81374255E+00  2.45704448E-15  1.58075060E-15
 -5.64999436E-15
