This is Gaussian file created by HARLEM                                 
SP        RHF                                                         Gen                 
Number of atoms                            I                6
Info1-9                                    I   N=           9
          41          41           0           0           0         110
           1           1           2
Charge                                     I                0
Multiplicity                               I                1
Number of electrons                        I               16
Number of alpha electrons                  I                8
Number of beta electrons                   I                8
Number of basis functions                  I               12
Number of independent functions            I               12
Number of point charges in /Mol/           I                0
Number of translation vectors              I                0
Atomic numbers                             I   N=           6
           6           6           1           1           1           1
Nuclear charges                            R   N=           6
  6.00000000E+00  6.00000000E+00  1.00000000E+00  1.00000000E+00  1.00000000E+00
  1.00000000E+00
Current cartesian coordinates              R   N=          18
 -7.37087489E-03  3.79770075E-01 -1.18318126E+00  7.37087489E-03 -3.79770075E-01
  1.18318126E+00  1.40270290E+00  1.64288528E+00 -1.91288272E+00  1.43016704E+00
  2.27848949E-01  2.49569126E+00 -1.43016704E+00 -2.27848949E-01 -2.49569126E+00
 -1.40270290E+00 -1.64288528E+00  1.91288272E+00
Force Field                                I                0
Int Atom Types                             I   N=           6
           0           0           0           0           0           0
MM charges                                 R   N=           6
  0.00000000E+00  0.00000000E+00  0.00000000E+00  0.00000000E+00  0.00000000E+00
  0.00000000E+00
Integer atomic weights                     I   N=           6
          12          12           1           1           1           1
Real atomic weights                        R   N=           6
  1.20000000E+01  1.20000000E+01  1.00782504E+00  1.00782504E+00  1.00782504E+00
  1.00782504E+00
Atom fragment info                         I   N=           6
           0           0           0           0           0           0
Atom residue num                           I   N=           6
           0           0           0           0           0           0
Nuclear spins                              I   N=           6
           0           0           1           1           1           1
Nuclear ZEff                               R   N=           6
 -3.60000000E+00 -3.60000000E+00 -1.00000000E+00 -1.00000000E+00 -1.00000000E+00
 -1.00000000E+00
Nuclear QMom                               R   N=           6
  0.00000000E+00  0.00000000E+00  0.00000000E+00  0.00000000E+00  0.00000000E+00
  0.00000000E+00
Nuclear GFac                               R   N=           6
  0.00000000E+00  0.00000000E+00  2.79284600E+00  2.79284600E+00  2.79284600E+00
  2.79284600E+00
MicOpt                                     I   N=           6
          -1          -1          -1          -1          -1          -1
Number of contracted shells                I                8
Number of primitive shells                 I               48
Pure/Cartesian d shells                    I                0
Pure/Cartesian f shells                    I                0
Highest angular momentum                   I                1
Largest degree of contraction              I                6
Shell types                                I   N=           8
           0           1           0           1           0           0
           0           0
Number of primitives per shell             I   N=           8
           6           6           6           6           6           6
           6           6
Shell to atom map                          I   N=           8
           1           1           2           2           3           4
           5           6
Primitive exponents                        R   N=          48
  3.04972395E+01  6.03619960E+00  1.87604630E+00  7.21782600E-01  3.13470700E-01
  1.43686600E-01  3.04972395E+01  6.03619960E+00  1.87604630E+00  7.21782600E-01
  3.13470700E-01  1.43686600E-01  3.04972395E+01  6.03619960E+00  1.87604630E+00
  7.21782600E-01  3.13470700E-01  1.43686600E-01  3.04972395E+01  6.03619960E+00
  1.87604630E+00  7.21782600E-01  3.13470700E-01  1.43686600E-01  3.55232212E+01
  6.51314370E+00  1.82214290E+00  6.25955300E-01  2.43076700E-01  1.00112400E-01
  3.55232212E+01  6.51314370E+00  1.82214290E+00  6.25955300E-01  2.43076700E-01
  1.00112400E-01  3.55232212E+01  6.51314370E+00  1.82214290E+00  6.25955300E-01
  2.43076700E-01  1.00112400E-01  3.55232212E+01  6.51314370E+00  1.82214290E+00
  6.25955300E-01  2.43076700E-01  1.00112400E-01
Contraction coefficients                   R   N=          48
 -1.32527897E-02 -4.69917088E-02 -3.37853692E-02  2.50241784E-01  5.95117235E-01
  2.40706174E-01  3.75969994E-03  3.76793694E-02  1.73896737E-01  4.18036423E-01
  4.25859543E-01  1.01708298E-01 -1.32527897E-02 -4.69917088E-02 -3.37853692E-02
  2.50241784E-01  5.95117235E-01  2.40706174E-01  3.75969994E-03  3.76793694E-02
  1.73896737E-01  4.18036423E-01  4.25859543E-01  1.01708298E-01  9.16360026E-03
  4.93614914E-02  1.68538305E-01  3.70562811E-01  4.16491542E-01  1.30334084E-01
  9.16360026E-03  4.93614914E-02  1.68538305E-01  3.70562811E-01  4.16491542E-01
  1.30334084E-01  9.16360026E-03  4.93614914E-02  1.68538305E-01  3.70562811E-01
  4.16491542E-01  1.30334084E-01  9.16360026E-03  4.93614914E-02  1.68538305E-01
  3.70562811E-01  4.16491542E-01  1.30334084E-01
Coordinates of each shell                  R   N=          24
 -7.37087489E-03  3.79770075E-01 -1.18318126E+00 -7.37087489E-03  3.79770075E-01
 -1.18318126E+00  7.37087489E-03 -3.79770075E-01  1.18318126E+00  7.37087489E-03
 -3.79770075E-01  1.18318126E+00  1.40270290E+00  1.64288528E+00 -1.91288272E+00
  1.43016704E+00  2.27848949E-01  2.49569126E+00 -1.43016704E+00 -2.27848949E-01
 -2.49569126E+00 -1.40270290E+00 -1.64288528E+00  1.91288272E+00
Constraint Structure                       R   N=          18
 -7.37087489E-03  3.79770075E-01 -1.18318126E+00  7.37087489E-03 -3.79770075E-01
  1.18318126E+00  1.40270290E+00  1.64288528E+00 -1.91288272E+00  1.43016704E+00
  2.27848949E-01  2.49569126E+00 -1.43016704E+00 -2.27848949E-01 -2.49569126E+00
 -1.40270290E+00 -1.64288528E+00  1.91288272E+00
Num ILSW                                   I              100
ILSW                                       I   N=         100
           0           0           0           0           2           0
           0           0           0           0           0          -1
           0           0           0           0           0           0
           0           0           0           0           0           0
           1           1           0           0           0           0
           0           0      100000           0          -1           0
           0           0           0           0           0           0
           0           0           0           1           0           0
           0           0           1           0           0           0
           0           0           4          40           0           0
           0           0           0           0           0           0
           0           0           0           0           0           0
           0           0           0           0           0           0
           0           0           0           0           0           0
           0           0           0           0           0           0
           0           0           0           0           0           0
           0           0           0           0
Num RLSW                                   I               40
RLSW                                       R   N=          40
  1.00000000E+00  1.00000000E+00  1.00000000E+00  1.00000000E+00  1.00000000E+00
  0.00000000E+00  0.00000000E+00  1.00000000E+00  0.00000000E+00  0.00000000E+00
  0.00000000E+00  0.00000000E+00  1.00000000E+00  0.00000000E+00  0.00000000E+00
  0.00000000E+00  0.00000000E+00  1.00000000E+00  0.00000000E+00  0.00000000E+00
  0.00000000E+00  0.00000000E+00  1.00000000E+00  0.00000000E+00  0.00000000E+00
  0.00000000E+00  0.00000000E+00  1.00000000E+00  0.00000000E+00  0.00000000E+00
  0.00000000E+00  0.00000000E+00  0.00000000E+00  0.00000000E+00  0.00000000E+00
  0.00000000E+00  0.00000000E+00  0.00000000E+00  1.00000000E+00  1.00000000E+00
MxBond                                     I                3
NBond                                      I   N=           6
           3           3           1           1           1           1
IBond                                      I   N=          18
           2           3           5           1           4           6
           1           0           0           2           0           0
           1           0           0           2           0           0
RBond                                      R   N=          18
  2.00000000E+00  1.00000000E+00  1.00000000E+00  2.00000000E+00  1.00000000E+00
  1.00000000E+00  1.00000000E+00  0.00000000E+00  0.00000000E+00  1.00000000E+00
  0.00000000E+00  0.00000000E+00  1.00000000E+00  0.00000000E+00  0.00000000E+00
  1.00000000E+00  0.00000000E+00  0.00000000E+00
Virial Ratio                               R      2.643412274655914E+00
SCF Energy                                 R     -3.333587635502884E+01
Total Energy                               R     -3.333587635502884E+01
RMS Density                                R      1.181360193677086E-09
External E-field                           R   N=          35
  0.00000000E+00  0.00000000E+00  0.00000000E+00  0.00000000E+00  0.00000000E+00
  0.00000000E+00  0.00000000E+00  0.00000000E+00  0.00000000E+00  0.00000000E+00
  0.00000000E+00  0.00000000E+00  0.00000000E+00  0.00000000E+00  0.00000000E+00
  0.00000000E+00  0.00000000E+00  0.00000000E+00  0.00000000E+00  0.00000000E+00
  0.00000000E+00  0.00000000E+00  0.00000000E+00  0.00000000E+00  0.00000000E+00
  0.00000000E+00  0.00000000E+00  0.00000000E+00  0.00000000E+00  0.00000000E+00
  0.00000000E+00  0.00000000E+00  0.00000000E+00  0.00000000E+00  0.00000000E+00
IOpCl                                      I                0
IROHF                                      I                0
Alpha Orbital Energies                     R   N=          12
 -1.94102326E+00 -1.74424679E+00 -7.84197455E-01 -7.67755087E-01 -6.34409527E-01
 -6.14399757E-01 -4.15451645E-01 -2.94684059E-01  3.30184337E-01  4.22890187E-01
  4.76182259E-01  5.79824384E-01
Alpha MO coefficients                      R   N=         144
  6.58600583E-01 -4.34977759E-05  2.24113483E-03 -6.98230020E-03  6.58600583E-01
  4.34977759E-05 -2.24113483E-03  6.98230020E-03 -7.51914821E-02 -7.51914821E-02
 -7.51914821E-02 -7.51914821E-02  1.04305221E+00  2.28710225E-04 -1.17838563E-02
  3.67128402E-02 -1.04305221E+00  2.28710225E-04 -1.17838563E-02  3.67128402E-02
 -7.82365851E-02  7.82365851E-02 -7.82365851E-02  7.82365851E-02 -1.16700676E-01
  3.43589145E-03 -1.77027642E-01  5.51533157E-01 -1.16700676E-01 -3.43589145E-03
  1.77027642E-01 -5.51533157E-01 -1.07055031E-01 -1.07055031E-01 -1.07055031E-01
 -1.07055031E-01  2.06551795E-10  4.31325392E-01  2.84833117E-01  8.87369097E-02
 -2.06543535E-10  4.31325392E-01  2.84833117E-01  8.87369097E-02  1.31090666E-01
  1.31090666E-01 -1.31090666E-01 -1.31090666E-01  1.12677230E-10  4.98907495E-01
  3.29462118E-01  1.02640628E-01  1.12664696E-10 -4.98907495E-01 -3.29462118E-01
 -1.02640628E-01  1.95064784E-01 -1.95064784E-01 -1.95064784E-01  1.95064784E-01
 -2.26854300E-10 -3.60105189E-01  4.95103265E-01  1.61158480E-01  2.26857151E-10
 -3.60105189E-01  4.95103265E-01  1.61158480E-01  1.14450625E-10 -1.15976770E-10
  1.15864126E-10 -1.14337581E-10 -2.25811576E-10 -4.63697387E-01  6.37530637E-01
  2.07519271E-01 -2.25848953E-10  4.63697387E-01 -6.37530637E-01 -2.07519271E-01
  1.49012828E-10  1.50741316E-10  1.50714996E-10  1.49015956E-10  9.18347172E-01
  4.83036706E-03 -2.48875333E-01  7.75376076E-01 -9.18347172E-01  4.83036706E-03
 -2.48875333E-01  7.75376076E-01 -3.42423338E-01  3.42423338E-01 -3.42423338E-01
  3.42423338E-01 -6.49502983E-01  2.64114805E-03 -1.36080069E-01  4.23960172E-01
 -6.49502983E-01 -2.64114805E-03  1.36080069E-01 -4.23960172E-01  6.65241149E-01
  6.65241148E-01  6.65241148E-01  6.65241149E-01 -3.71556142E-10 -5.06151144E-01
 -3.34245587E-01 -1.04130866E-01  3.71508789E-10 -5.06151144E-01 -3.34245587E-01
 -1.04130866E-01  6.68544506E-01  6.68544500E-01 -6.68544500E-01 -6.68544506E-01
 -1.00099788E-01  5.29350596E-03 -2.72737512E-01  8.49719178E-01  1.00099788E-01
  5.29350596E-03 -2.72737512E-01  8.49719178E-01  5.98327953E-01 -5.98327960E-01
  5.98327960E-01 -5.98327953E-01 -1.10305139E-09  6.95757299E-01  4.59455260E-01
  1.43138693E-01 -1.10305890E-09 -6.95757299E-01 -4.59455260E-01 -1.43138693E-01
 -6.84740064E-01  6.84740066E-01  6.84740066E-01 -6.84740064E-01
Total SCF Density                          R   N=          78
  4.75738645E+00  8.48978490E-03  1.55935298E+00 -4.37419755E-01 -3.76993739E-01
  1.86933869E+00  1.36278999E+00 -1.18256857E-01 -3.97509357E-02  1.98847822E+00
 -2.96789134E+00 -1.02082583E-02  5.25960787E-01 -1.63864135E+00  4.75738645E+00
  1.02082583E-02 -2.96390075E-01  1.50440325E-01  5.42337570E-02 -8.48978490E-03
  1.55935298E+00 -5.25960787E-01  1.50440325E-01 -3.15998941E-01 -3.13606254E-01
  4.37419755E-01 -3.76993739E-01  1.86933869E+00  1.63864135E+00  5.42337570E-02
 -3.13606254E-01  5.57130529E-01 -1.36278999E+00 -1.18256857E-01 -3.97509357E-02
  1.98847822E+00 -8.66192214E-01  3.03651065E-01  4.13062512E-01 -5.90488777E-01
  7.18081176E-01 -8.41678300E-02  8.08639436E-02 -4.36497507E-01  3.91448554E-01
  7.18081176E-01 -7.89383693E-02 -1.88573919E-01  4.02941542E-01 -8.66192214E-01
  3.11796997E-01 -6.64083379E-03  7.17105388E-01 -2.54251349E-01  3.91448554E-01
 -8.66192214E-01 -3.11796997E-01  6.64083379E-03 -7.17105388E-01  7.18081176E-01
  7.89383693E-02  1.88573919E-01 -4.02941542E-01  1.70508424E-01 -1.70789320E-01
  3.91448554E-01  7.18081176E-01  8.41678300E-02 -8.08639436E-02  4.36497507E-01
 -8.66192214E-01 -3.03651065E-01 -4.13062512E-01  5.90488777E-01 -1.70789320E-01
  1.70508424E-01 -2.54251349E-01  3.91448554E-01
QEq coupling tensors                       R   N=          36
 -1.86550920E-01 -8.20086635E-01  3.91120309E-01 -2.63787531E-01  2.19445248E-01
 -2.04569389E-01 -1.86550920E-01 -8.20086635E-01  3.91120309E-01 -2.63787531E-01
  2.19445248E-01 -2.04569389E-01 -8.00634394E-02 -2.66892356E-01 -1.55506719E-02
  1.38252655E-01  1.42674913E-01  9.56141112E-02 -8.51099480E-02 -1.38552843E-01
  1.56152429E-01 -2.67302085E-01 -9.80511163E-02 -7.10424813E-02 -8.51099480E-02
 -1.38552843E-01  1.56152429E-01 -2.67302085E-01 -9.80511163E-02 -7.10424813E-02
 -8.00634394E-02 -2.66892356E-01 -1.55506719E-02  1.38252655E-01  1.42674913E-01
  9.56141112E-02
Mulliken Charges                           R   N=           6
 -1.16477511E+00 -1.16477511E+00  5.82387556E-01  5.82387556E-01  5.82387556E-01
  5.82387556E-01
ONIOM Charges                              I   N=          16
           0           0           0           0           0           0
           0           0           0           0           0           0
           0           0           0           0
ONIOM Multiplicities                       I   N=          16
           1           0           0           0           0           0
           0           0           0           0           0           0
           0           0           0           0
Atom Layers                                I   N=           6
           1           1           1           1           1           1
Atom Modifiers                             I   N=           6
           0           0           0           0           0           0
Force Field                                I                0
Int Atom Modified Types                    I   N=           6
           0           0           0           0           0           0
Link Atoms                                 I   N=           6
           0           0           0           0           0           0
Atom Modified MM Charges                   R   N=           6
  0.00000000E+00  0.00000000E+00  0.00000000E+00  0.00000000E+00  0.00000000E+00
  0.00000000E+00
Link Distances                             R   N=          24
  0.00000000E+00  0.00000000E+00  0.00000000E+00  0.00000000E+00  0.00000000E+00
  0.00000000E+00  0.00000000E+00  0.00000000E+00  0.00000000E+00  0.00000000E+00
  0.00000000E+00  0.00000000E+00  0.00000000E+00  0.00000000E+00  0.00000000E+00
  0.00000000E+00  0.00000000E+00  0.00000000E+00  0.00000000E+00  0.00000000E+00
  0.00000000E+00  0.00000000E+00  0.00000000E+00  0.00000000E+00
Cartesian Gradient                         R   N=          18
  0.00000000E+00  0.00000000E+00  0.00000000E+00  0.00000000E+00  0.00000000E+00
  0.00000000E+00  0.00000000E+00  0.00000000E+00  0.00000000E+00  0.00000000E+00
  0.00000000E+00  0.00000000E+00  0.00000000E+00  0.00000000E+00  0.00000000E+00
  0.00000000E+00  0.00000000E+00  0.00000000E+00
Dipole Moment                              R   N=           3
  8.27573025E-15  5.06539255E-16  1.61457068E-14
Quadrupole Moment                          R   N=           6
  3.92877003E-01 -1.85198596E+00  1.45910896E+00  3.33010485E+00  1.07798048E+00
 -1.21037313E+00
