This is Gaussian file created by HARLEM                                 
SP        RHF                                                         Gen                 
Number of atoms                            I               37
Info1-9                                    I   N=           9
         123         123           0           0           0         110
           1           1           2
Charge                                     I                2
Multiplicity                               I                1
Number of electrons                        I              184
Number of alpha electrons                  I               92
Number of beta electrons                   I               92
Number of basis functions                  I              267
Number of independent functions            I              267
Number of point charges in /Mol/           I                0
Number of translation vectors              I                0
Atomic numbers                             I   N=          37
          26           6           6           6           6           7
           6           6           6           6           7           6
           6           6           6           7           6           6
           6           6           7           6           6           6
           6           1           1           1           1           1
           1           1           1           1           1           1
           1
Nuclear charges                            R   N=          37
  2.60000000E+01  6.00000000E+00  6.00000000E+00  6.00000000E+00  6.00000000E+00
  7.00000000E+00  6.00000000E+00  6.00000000E+00  6.00000000E+00  6.00000000E+00
  7.00000000E+00  6.00000000E+00  6.00000000E+00  6.00000000E+00  6.00000000E+00
  7.00000000E+00  6.00000000E+00  6.00000000E+00  6.00000000E+00  6.00000000E+00
  7.00000000E+00  6.00000000E+00  6.00000000E+00  6.00000000E+00  6.00000000E+00
  1.00000000E+00  1.00000000E+00  1.00000000E+00  1.00000000E+00  1.00000000E+00
  1.00000000E+00  1.00000000E+00  1.00000000E+00  1.00000000E+00  1.00000000E+00
  1.00000000E+00  1.00000000E+00
Current cartesian coordinates              R   N=         111
  0.00000000E+00  0.00000000E+00  0.00000000E+00  4.56844883E+00  4.56844883E+00
 -1.23259516E-32 -4.56844883E+00  4.56844883E+00 -5.59455147E-16 -4.56844883E+00
 -4.56844883E+00 -1.23259516E-32  4.56844883E+00 -4.56844883E+00 -5.59455147E-16
  0.00000000E+00  3.73771577E+00  0.00000000E+00  2.05868844E+00  5.32757450E+00
  0.00000000E+00  1.26781159E+00  7.99702053E+00  0.00000000E+00 -1.26781159E+00
  7.99702053E+00 -1.55257013E-16 -2.05868844E+00  5.32757450E+00 -2.52108294E-16
 -3.73771577E+00  2.28861524E-16  0.00000000E+00 -5.32757450E+00  2.05868844E+00
  0.00000000E+00 -7.99702053E+00  1.26781159E+00  0.00000000E+00 -7.99702053E+00
 -1.26781159E+00 -8.02267252E-16 -5.32757450E+00 -2.05868844E+00 -6.39596788E-16
 -4.57723049E-16 -3.73771577E+00  0.00000000E+00 -2.05868844E+00 -5.32757450E+00
  0.00000000E+00 -1.26781159E+00 -7.99702053E+00  0.00000000E+00  1.26781159E+00
 -7.99702053E+00 -9.79320215E-16  2.05868844E+00 -5.32757450E+00 -6.52418158E-16
  3.73771577E+00 -6.86584573E-16  0.00000000E+00  5.32757450E+00 -2.05868844E+00
  0.00000000E+00  7.99702053E+00 -1.26781159E+00  0.00000000E+00  7.99702053E+00
  1.26781159E+00 -5.82700678E-16  5.32757450E+00  2.05868844E+00 -2.83061819E-16
  6.01736611E+00  6.01736611E+00 -2.46519033E-32 -6.01736611E+00  6.01736611E+00
 -7.36890477E-16 -6.01736611E+00 -6.01736611E+00 -2.46519033E-32  6.01736611E+00
 -6.01736611E+00 -7.36890477E-16  2.55884981E+00  9.58359490E+00  0.00000000E+00
 -2.55884981E+00  9.58359490E+00 -3.13358374E-16 -9.58359490E+00  2.55884981E+00
  0.00000000E+00 -9.58359490E+00 -2.55884981E+00 -1.05144763E-15 -2.55884981E+00
 -9.58359490E+00  0.00000000E+00  2.55884981E+00 -9.58359490E+00 -1.17361312E-15
  9.58359490E+00 -2.55884981E+00  0.00000000E+00  9.58359490E+00  2.55884981E+00
 -6.08291966E-16
Force Field                                I                0
Int Atom Types                             I   N=          37
           0           0           0           0           0           0
           0           0           0           0           0           0
           0           0           0           0           0           0
           0           0           0           0           0           0
           0           0           0           0           0           0
           0           0           0           0           0           0
           0
MM charges                                 R   N=          37
  0.00000000E+00  0.00000000E+00  0.00000000E+00  0.00000000E+00  0.00000000E+00
  0.00000000E+00  0.00000000E+00  0.00000000E+00  0.00000000E+00  0.00000000E+00
  0.00000000E+00  0.00000000E+00  0.00000000E+00  0.00000000E+00  0.00000000E+00
  0.00000000E+00  0.00000000E+00  0.00000000E+00  0.00000000E+00  0.00000000E+00
  0.00000000E+00  0.00000000E+00  0.00000000E+00  0.00000000E+00  0.00000000E+00
  0.00000000E+00  0.00000000E+00  0.00000000E+00  0.00000000E+00  0.00000000E+00
  0.00000000E+00  0.00000000E+00  0.00000000E+00  0.00000000E+00  0.00000000E+00
  0.00000000E+00  0.00000000E+00
Integer atomic weights                     I   N=          37
          56          12          12          12          12          14
          12          12          12          12          14          12
          12          12          12          14          12          12
          12          12          14          12          12          12
          12           1           1           1           1           1
           1           1           1           1           1           1
           1
Real atomic weights                        R   N=          37
  5.59349393E+01  1.20000000E+01  1.20000000E+01  1.20000000E+01  1.20000000E+01
  1.40030740E+01  1.20000000E+01  1.20000000E+01  1.20000000E+01  1.20000000E+01
  1.40030740E+01  1.20000000E+01  1.20000000E+01  1.20000000E+01  1.20000000E+01
  1.40030740E+01  1.20000000E+01  1.20000000E+01  1.20000000E+01  1.20000000E+01
  1.40030740E+01  1.20000000E+01  1.20000000E+01  1.20000000E+01  1.20000000E+01
  1.00782504E+00  1.00782504E+00  1.00782504E+00  1.00782504E+00  1.00782504E+00
  1.00782504E+00  1.00782504E+00  1.00782504E+00  1.00782504E+00  1.00782504E+00
  1.00782504E+00  1.00782504E+00
Atom fragment info                         I   N=          37
           0           0           0           0           0           0
           0           0           0           0           0           0
           0           0           0           0           0           0
           0           0           0           0           0           0
           0           0           0           0           0           0
           0           0           0           0           0           0
           0
Atom residue num                           I   N=          37
           0           0           0           0           0           0
           0           0           0           0           0           0
           0           0           0           0           0           0
           0           0           0           0           0           0
           0           0           0           0           0           0
           0           0           0           0           0           0
           0
Nuclear spins                              I   N=          37
           0           0           0           0           0           2
           0           0           0           0           2           0
           0           0           0           2           0           0
           0           0           2           0           0           0
           0           1           1           1           1           1
           1           1           1           1           1           1
           1
Nuclear ZEff                               R   N=          37
 -2.52200000E+01 -3.60000000E+00 -3.60000000E+00 -3.60000000E+00 -3.60000000E+00
 -4.55000000E+00 -3.60000000E+00 -3.60000000E+00 -3.60000000E+00 -3.60000000E+00
 -4.55000000E+00 -3.60000000E+00 -3.60000000E+00 -3.60000000E+00 -3.60000000E+00
 -4.55000000E+00 -3.60000000E+00 -3.60000000E+00 -3.60000000E+00 -3.60000000E+00
 -4.55000000E+00 -3.60000000E+00 -3.60000000E+00 -3.60000000E+00 -3.60000000E+00
 -1.00000000E+00 -1.00000000E+00 -1.00000000E+00 -1.00000000E+00 -1.00000000E+00
 -1.00000000E+00 -1.00000000E+00 -1.00000000E+00 -1.00000000E+00 -1.00000000E+00
 -1.00000000E+00 -1.00000000E+00
Nuclear QMom                               R   N=          37
  0.00000000E+00  0.00000000E+00  0.00000000E+00  0.00000000E+00  0.00000000E+00
  2.04400000E+00  0.00000000E+00  0.00000000E+00  0.00000000E+00  0.00000000E+00
  2.04400000E+00  0.00000000E+00  0.00000000E+00  0.00000000E+00  0.00000000E+00
  2.04400000E+00  0.00000000E+00  0.00000000E+00  0.00000000E+00  0.00000000E+00
  2.04400000E+00  0.00000000E+00  0.00000000E+00  0.00000000E+00  0.00000000E+00
  0.00000000E+00  0.00000000E+00  0.00000000E+00  0.00000000E+00  0.00000000E+00
  0.00000000E+00  0.00000000E+00  0.00000000E+00  0.00000000E+00  0.00000000E+00
  0.00000000E+00  0.00000000E+00
Nuclear GFac                               R   N=          37
  0.00000000E+00  0.00000000E+00  0.00000000E+00  0.00000000E+00  0.00000000E+00
  4.03761000E-01  0.00000000E+00  0.00000000E+00  0.00000000E+00  0.00000000E+00
  4.03761000E-01  0.00000000E+00  0.00000000E+00  0.00000000E+00  0.00000000E+00
  4.03761000E-01  0.00000000E+00  0.00000000E+00  0.00000000E+00  0.00000000E+00
  4.03761000E-01  0.00000000E+00  0.00000000E+00  0.00000000E+00  0.00000000E+00
  2.79284600E+00  2.79284600E+00  2.79284600E+00  2.79284600E+00  2.79284600E+00
  2.79284600E+00  2.79284600E+00  2.79284600E+00  2.79284600E+00  2.79284600E+00
  2.79284600E+00  2.79284600E+00
MicOpt                                     I   N=          37
          -1          -1          -1          -1          -1          -1
          -1          -1          -1          -1          -1          -1
          -1          -1          -1          -1          -1          -1
          -1          -1          -1          -1          -1          -1
          -1          -1          -1          -1          -1          -1
          -1          -1          -1          -1          -1          -1
          -1
Number of contracted shells                I              155
Number of primitive shells                 I              276
Pure/Cartesian d shells                    I                0
Pure/Cartesian f shells                    I                0
Highest angular momentum                   I                2
Largest degree of contraction              I                3
Shell types                                I   N=         155
           0           0           0           0           0           1
           1           1           1          -2          -2           0
           0           0           1           1           0           0
           0           1           1           0           0           0
           1           1           0           0           0           1
           1           0           0           0           1           1
           0           0           0           1           1           0
           0           0           1           1           0           0
           0           1           1           0           0           0
           1           1           0           0           0           1
           1           0           0           0           1           1
           0           0           0           1           1           0
           0           0           1           1           0           0
           0           1           1           0           0           0
           1           1           0           0           0           1
           1           0           0           0           1           1
           0           0           0           1           1           0
           0           0           1           1           0           0
           0           1           1           0           0           0
           1           1           0           0           0           1
           1           0           0           0           1           1
           0           0           0           1           1           0
           0           0           0           0           0           0
           0           0           0           0           0           0
           0           0           0           0           0           0
           0           0           0           0           0
Number of primitives per shell             I   N=         155
           3           3           3           2           1           3
           3           2           1           2           1           3
           2           1           2           1           3           2
           1           2           1           3           2           1
           2           1           3           2           1           2
           1           3           2           1           2           1
           3           2           1           2           1           3
           2           1           2           1           3           2
           1           2           1           3           2           1
           2           1           3           2           1           2
           1           3           2           1           2           1
           3           2           1           2           1           3
           2           1           2           1           3           2
           1           2           1           3           2           1
           2           1           3           2           1           2
           1           3           2           1           2           1
           3           2           1           2           1           3
           2           1           2           1           3           2
           1           2           1           3           2           1
           2           1           3           2           1           2
           1           3           2           1           2           1
           3           2           1           2           1           2
           1           2           1           2           1           2
           1           2           1           2           1           2
           1           2           1           2           1           2
           1           2           1           2           1
Shell to atom map                          I   N=         155
           1           1           1           1           1           1
           1           1           1           1           1           2
           2           2           2           2           3           3
           3           3           3           4           4           4
           4           4           5           5           5           5
           5           6           6           6           6           6
           7           7           7           7           7           8
           8           8           8           8           9           9
           9           9           9          10          10          10
          10          10          11          11          11          11
          11          12          12          12          12          12
          13          13          13          13          13          14
          14          14          14          14          15          15
          15          15          15          16          16          16
          16          16          17          17          17          17
          17          18          18          18          18          18
          19          19          19          19          19          20
          20          20          20          20          21          21
          21          21          21          22          22          22
          22          22          23          23          23          23
          23          24          24          24          24          24
          25          25          25          25          25          26
          26          27          27          28          28          29
          29          30          30          31          31          32
          32          33          33          34          34          35
          35          36          36          37          37
Primitive exponents                        R   N=         276
  3.29918400E+03  4.99088600E+02  1.09161400E+02  1.43465200E+02  3.11685800E+01
  9.48361200E+00  9.46456500E+00  3.10037300E+00  9.86493000E-01  8.53412000E-01
  9.88120000E-02  3.64420000E-02  1.43465200E+02  3.11685800E+01  9.48361200E+00
  9.46456500E+00  3.10037300E+00  9.86493000E-01  8.53412000E-01  9.88120000E-02
  3.64420000E-02  1.23544900E+01  3.05560500E+00  7.38591000E-01  1.72256000E+02
  2.59109000E+01  5.53335000E+00  3.66498000E+00  7.70545000E-01  1.95857000E-01
  3.66498000E+00  7.70545000E-01  1.95857000E-01  1.72256000E+02  2.59109000E+01
  5.53335000E+00  3.66498000E+00  7.70545000E-01  1.95857000E-01  3.66498000E+00
  7.70545000E-01  1.95857000E-01  1.72256000E+02  2.59109000E+01  5.53335000E+00
  3.66498000E+00  7.70545000E-01  1.95857000E-01  3.66498000E+00  7.70545000E-01
  1.95857000E-01  1.72256000E+02  2.59109000E+01  5.53335000E+00  3.66498000E+00
  7.70545000E-01  1.95857000E-01  3.66498000E+00  7.70545000E-01  1.95857000E-01
  2.42766000E+02  3.64851000E+01  7.81449000E+00  5.42522000E+00  1.14915000E+00
  2.83205000E-01  5.42522000E+00  1.14915000E+00  2.83205000E-01  1.72256000E+02
  2.59109000E+01  5.53335000E+00  3.66498000E+00  7.70545000E-01  1.95857000E-01
  3.66498000E+00  7.70545000E-01  1.95857000E-01  1.72256000E+02  2.59109000E+01
  5.53335000E+00  3.66498000E+00  7.70545000E-01  1.95857000E-01  3.66498000E+00
  7.70545000E-01  1.95857000E-01  1.72256000E+02  2.59109000E+01  5.53335000E+00
  3.66498000E+00  7.70545000E-01  1.95857000E-01  3.66498000E+00  7.70545000E-01
  1.95857000E-01  1.72256000E+02  2.59109000E+01  5.53335000E+00  3.66498000E+00
  7.70545000E-01  1.95857000E-01  3.66498000E+00  7.70545000E-01  1.95857000E-01
  2.42766000E+02  3.64851000E+01  7.81449000E+00  5.42522000E+00  1.14915000E+00
  2.83205000E-01  5.42522000E+00  1.14915000E+00  2.83205000E-01  1.72256000E+02
  2.59109000E+01  5.53335000E+00  3.66498000E+00  7.70545000E-01  1.95857000E-01
  3.66498000E+00  7.70545000E-01  1.95857000E-01  1.72256000E+02  2.59109000E+01
  5.53335000E+00  3.66498000E+00  7.70545000E-01  1.95857000E-01  3.66498000E+00
  7.70545000E-01  1.95857000E-01  1.72256000E+02  2.59109000E+01  5.53335000E+00
  3.66498000E+00  7.70545000E-01  1.95857000E-01  3.66498000E+00  7.70545000E-01
  1.95857000E-01  1.72256000E+02  2.59109000E+01  5.53335000E+00  3.66498000E+00
  7.70545000E-01  1.95857000E-01  3.66498000E+00  7.70545000E-01  1.95857000E-01
  2.42766000E+02  3.64851000E+01  7.81449000E+00  5.42522000E+00  1.14915000E+00
  2.83205000E-01  5.42522000E+00  1.14915000E+00  2.83205000E-01  1.72256000E+02
  2.59109000E+01  5.53335000E+00  3.66498000E+00  7.70545000E-01  1.95857000E-01
  3.66498000E+00  7.70545000E-01  1.95857000E-01  1.72256000E+02  2.59109000E+01
  5.53335000E+00  3.66498000E+00  7.70545000E-01  1.95857000E-01  3.66498000E+00
  7.70545000E-01  1.95857000E-01  1.72256000E+02  2.59109000E+01  5.53335000E+00
  3.66498000E+00  7.70545000E-01  1.95857000E-01  3.66498000E+00  7.70545000E-01
  1.95857000E-01  1.72256000E+02  2.59109000E+01  5.53335000E+00  3.66498000E+00
  7.70545000E-01  1.95857000E-01  3.66498000E+00  7.70545000E-01  1.95857000E-01
  2.42766000E+02  3.64851000E+01  7.81449000E+00  5.42522000E+00  1.14915000E+00
  2.83205000E-01  5.42522000E+00  1.14915000E+00  2.83205000E-01  1.72256000E+02
  2.59109000E+01  5.53335000E+00  3.66498000E+00  7.70545000E-01  1.95857000E-01
  3.66498000E+00  7.70545000E-01  1.95857000E-01  1.72256000E+02  2.59109000E+01
  5.53335000E+00  3.66498000E+00  7.70545000E-01  1.95857000E-01  3.66498000E+00
  7.70545000E-01  1.95857000E-01  1.72256000E+02  2.59109000E+01  5.53335000E+00
  3.66498000E+00  7.70545000E-01  1.95857000E-01  3.66498000E+00  7.70545000E-01
  1.95857000E-01  1.72256000E+02  2.59109000E+01  5.53335000E+00  3.66498000E+00
  7.70545000E-01  1.95857000E-01  3.66498000E+00  7.70545000E-01  1.95857000E-01
  5.44717800E+00  8.24547000E-01  1.83192000E-01  5.44717800E+00  8.24547000E-01
  1.83192000E-01  5.44717800E+00  8.24547000E-01  1.83192000E-01  5.44717800E+00
  8.24547000E-01  1.83192000E-01  5.44717800E+00  8.24547000E-01  1.83192000E-01
  5.44717800E+00  8.24547000E-01  1.83192000E-01  5.44717800E+00  8.24547000E-01
  1.83192000E-01  5.44717800E+00  8.24547000E-01  1.83192000E-01  5.44717800E+00
  8.24547000E-01  1.83192000E-01  5.44717800E+00  8.24547000E-01  1.83192000E-01
  5.44717800E+00  8.24547000E-01  1.83192000E-01  5.44717800E+00  8.24547000E-01
  1.83192000E-01
Contraction coefficients                   R   N=         276
  6.35859437E-02  3.76201667E-01  6.81784396E-01 -1.10552041E-01  9.68470357E-02
  9.58797353E-01 -2.92055846E-01  3.37523822E-01  8.51941549E-01 -2.27944048E-01
  1.08828723E+00  1.00000000E+00  1.41101068E-01  5.60387269E-01  4.67644224E-01
  2.37620117E-02  4.68911231E-01  6.08311300E-01 -4.25999864E-04  1.00012368E+00
  1.00000000E+00  2.68610915E-01  8.49271732E-01  1.00000000E+00  6.17669074E-02
  3.58794043E-01  7.00713084E-01 -3.95895162E-01  1.21583436E+00  1.00000000E+00
  2.36459947E-01  8.60618806E-01  1.00000000E+00  6.17669074E-02  3.58794043E-01
  7.00713084E-01 -3.95895162E-01  1.21583436E+00  1.00000000E+00  2.36459947E-01
  8.60618806E-01  1.00000000E+00  6.17669074E-02  3.58794043E-01  7.00713084E-01
 -3.95895162E-01  1.21583436E+00  1.00000000E+00  2.36459947E-01  8.60618806E-01
  1.00000000E+00  6.17669074E-02  3.58794043E-01  7.00713084E-01 -3.95895162E-01
  1.21583436E+00  1.00000000E+00  2.36459947E-01  8.60618806E-01  1.00000000E+00
  5.98657005E-02  3.52955003E-01  7.06513006E-01 -4.13300077E-01  1.22441727E+00
  1.00000000E+00  2.37972016E-01  8.58953059E-01  1.00000000E+00  6.17669074E-02
  3.58794043E-01  7.00713084E-01 -3.95895162E-01  1.21583436E+00  1.00000000E+00
  2.36459947E-01  8.60618806E-01  1.00000000E+00  6.17669074E-02  3.58794043E-01
  7.00713084E-01 -3.95895162E-01  1.21583436E+00  1.00000000E+00  2.36459947E-01
  8.60618806E-01  1.00000000E+00  6.17669074E-02  3.58794043E-01  7.00713084E-01
 -3.95895162E-01  1.21583436E+00  1.00000000E+00  2.36459947E-01  8.60618806E-01
  1.00000000E+00  6.17669074E-02  3.58794043E-01  7.00713084E-01 -3.95895162E-01
  1.21583436E+00  1.00000000E+00  2.36459947E-01  8.60618806E-01  1.00000000E+00
  5.98657005E-02  3.52955003E-01  7.06513006E-01 -4.13300077E-01  1.22441727E+00
  1.00000000E+00  2.37972016E-01  8.58953059E-01  1.00000000E+00  6.17669074E-02
  3.58794043E-01  7.00713084E-01 -3.95895162E-01  1.21583436E+00  1.00000000E+00
  2.36459947E-01  8.60618806E-01  1.00000000E+00  6.17669074E-02  3.58794043E-01
  7.00713084E-01 -3.95895162E-01  1.21583436E+00  1.00000000E+00  2.36459947E-01
  8.60618806E-01  1.00000000E+00  6.17669074E-02  3.58794043E-01  7.00713084E-01
 -3.95895162E-01  1.21583436E+00  1.00000000E+00  2.36459947E-01  8.60618806E-01
  1.00000000E+00  6.17669074E-02  3.58794043E-01  7.00713084E-01 -3.95895162E-01
  1.21583436E+00  1.00000000E+00  2.36459947E-01  8.60618806E-01  1.00000000E+00
  5.98657005E-02  3.52955003E-01  7.06513006E-01 -4.13300077E-01  1.22441727E+00
  1.00000000E+00  2.37972016E-01  8.58953059E-01  1.00000000E+00  6.17669074E-02
  3.58794043E-01  7.00713084E-01 -3.95895162E-01  1.21583436E+00  1.00000000E+00
  2.36459947E-01  8.60618806E-01  1.00000000E+00  6.17669074E-02  3.58794043E-01
  7.00713084E-01 -3.95895162E-01  1.21583436E+00  1.00000000E+00  2.36459947E-01
  8.60618806E-01  1.00000000E+00  6.17669074E-02  3.58794043E-01  7.00713084E-01
 -3.95895162E-01  1.21583436E+00  1.00000000E+00  2.36459947E-01  8.60618806E-01
  1.00000000E+00  6.17669074E-02  3.58794043E-01  7.00713084E-01 -3.95895162E-01
  1.21583436E+00  1.00000000E+00  2.36459947E-01  8.60618806E-01  1.00000000E+00
  5.98657005E-02  3.52955003E-01  7.06513006E-01 -4.13300077E-01  1.22441727E+00
  1.00000000E+00  2.37972016E-01  8.58953059E-01  1.00000000E+00  6.17669074E-02
  3.58794043E-01  7.00713084E-01 -3.95895162E-01  1.21583436E+00  1.00000000E+00
  2.36459947E-01  8.60618806E-01  1.00000000E+00  6.17669074E-02  3.58794043E-01
  7.00713084E-01 -3.95895162E-01  1.21583436E+00  1.00000000E+00  2.36459947E-01
  8.60618806E-01  1.00000000E+00  6.17669074E-02  3.58794043E-01  7.00713084E-01
 -3.95895162E-01  1.21583436E+00  1.00000000E+00  2.36459947E-01  8.60618806E-01
  1.00000000E+00  6.17669074E-02  3.58794043E-01  7.00713084E-01 -3.95895162E-01
  1.21583436E+00  1.00000000E+00  2.36459947E-01  8.60618806E-01  1.00000000E+00
  1.56284981E-01  9.04690888E-01  1.00000000E+00  1.56284981E-01  9.04690888E-01
  1.00000000E+00  1.56284981E-01  9.04690888E-01  1.00000000E+00  1.56284981E-01
  9.04690888E-01  1.00000000E+00  1.56284981E-01  9.04690888E-01  1.00000000E+00
  1.56284981E-01  9.04690888E-01  1.00000000E+00  1.56284981E-01  9.04690888E-01
  1.00000000E+00  1.56284981E-01  9.04690888E-01  1.00000000E+00  1.56284981E-01
  9.04690888E-01  1.00000000E+00  1.56284981E-01  9.04690888E-01  1.00000000E+00
  1.56284981E-01  9.04690888E-01  1.00000000E+00  1.56284981E-01  9.04690888E-01
  1.00000000E+00
Coordinates of each shell                  R   N=         465
  0.00000000E+00  0.00000000E+00  0.00000000E+00  0.00000000E+00  0.00000000E+00
  0.00000000E+00  0.00000000E+00  0.00000000E+00  0.00000000E+00  0.00000000E+00
  0.00000000E+00  0.00000000E+00  0.00000000E+00  0.00000000E+00  0.00000000E+00
  0.00000000E+00  0.00000000E+00  0.00000000E+00  0.00000000E+00  0.00000000E+00
  0.00000000E+00  0.00000000E+00  0.00000000E+00  0.00000000E+00  0.00000000E+00
  0.00000000E+00  0.00000000E+00  0.00000000E+00  0.00000000E+00  0.00000000E+00
  0.00000000E+00  0.00000000E+00  0.00000000E+00  4.56844883E+00  4.56844883E+00
 -1.23259516E-32  4.56844883E+00  4.56844883E+00 -1.23259516E-32  4.56844883E+00
  4.56844883E+00 -1.23259516E-32  4.56844883E+00  4.56844883E+00 -1.23259516E-32
  4.56844883E+00  4.56844883E+00 -1.23259516E-32 -4.56844883E+00  4.56844883E+00
 -5.59455147E-16 -4.56844883E+00  4.56844883E+00 -5.59455147E-16 -4.56844883E+00
  4.56844883E+00 -5.59455147E-16 -4.56844883E+00  4.56844883E+00 -5.59455147E-16
 -4.56844883E+00  4.56844883E+00 -5.59455147E-16 -4.56844883E+00 -4.56844883E+00
 -1.23259516E-32 -4.56844883E+00 -4.56844883E+00 -1.23259516E-32 -4.56844883E+00
 -4.56844883E+00 -1.23259516E-32 -4.56844883E+00 -4.56844883E+00 -1.23259516E-32
 -4.56844883E+00 -4.56844883E+00 -1.23259516E-32  4.56844883E+00 -4.56844883E+00
 -5.59455147E-16  4.56844883E+00 -4.56844883E+00 -5.59455147E-16  4.56844883E+00
 -4.56844883E+00 -5.59455147E-16  4.56844883E+00 -4.56844883E+00 -5.59455147E-16
  4.56844883E+00 -4.56844883E+00 -5.59455147E-16  0.00000000E+00  3.73771577E+00
  0.00000000E+00  0.00000000E+00  3.73771577E+00  0.00000000E+00  0.00000000E+00
  3.73771577E+00  0.00000000E+00  0.00000000E+00  3.73771577E+00  0.00000000E+00
  0.00000000E+00  3.73771577E+00  0.00000000E+00  2.05868844E+00  5.32757450E+00
  0.00000000E+00  2.05868844E+00  5.32757450E+00  0.00000000E+00  2.05868844E+00
  5.32757450E+00  0.00000000E+00  2.05868844E+00  5.32757450E+00  0.00000000E+00
  2.05868844E+00  5.32757450E+00  0.00000000E+00  1.26781159E+00  7.99702053E+00
  0.00000000E+00  1.26781159E+00  7.99702053E+00  0.00000000E+00  1.26781159E+00
  7.99702053E+00  0.00000000E+00  1.26781159E+00  7.99702053E+00  0.00000000E+00
  1.26781159E+00  7.99702053E+00  0.00000000E+00 -1.26781159E+00  7.99702053E+00
 -1.55257013E-16 -1.26781159E+00  7.99702053E+00 -1.55257013E-16 -1.26781159E+00
  7.99702053E+00 -1.55257013E-16 -1.26781159E+00  7.99702053E+00 -1.55257013E-16
 -1.26781159E+00  7.99702053E+00 -1.55257013E-16 -2.05868844E+00  5.32757450E+00
 -2.52108294E-16 -2.05868844E+00  5.32757450E+00 -2.52108294E-16 -2.05868844E+00
  5.32757450E+00 -2.52108294E-16 -2.05868844E+00  5.32757450E+00 -2.52108294E-16
 -2.05868844E+00  5.32757450E+00 -2.52108294E-16 -3.73771577E+00  2.28861524E-16
  0.00000000E+00 -3.73771577E+00  2.28861524E-16  0.00000000E+00 -3.73771577E+00
  2.28861524E-16  0.00000000E+00 -3.73771577E+00  2.28861524E-16  0.00000000E+00
 -3.73771577E+00  2.28861524E-16  0.00000000E+00 -5.32757450E+00  2.05868844E+00
  0.00000000E+00 -5.32757450E+00  2.05868844E+00  0.00000000E+00 -5.32757450E+00
  2.05868844E+00  0.00000000E+00 -5.32757450E+00  2.05868844E+00  0.00000000E+00
 -5.32757450E+00  2.05868844E+00  0.00000000E+00 -7.99702053E+00  1.26781159E+00
  0.00000000E+00 -7.99702053E+00  1.26781159E+00  0.00000000E+00 -7.99702053E+00
  1.26781159E+00  0.00000000E+00 -7.99702053E+00  1.26781159E+00  0.00000000E+00
 -7.99702053E+00  1.26781159E+00  0.00000000E+00 -7.99702053E+00 -1.26781159E+00
 -8.02267252E-16 -7.99702053E+00 -1.26781159E+00 -8.02267252E-16 -7.99702053E+00
 -1.26781159E+00 -8.02267252E-16 -7.99702053E+00 -1.26781159E+00 -8.02267252E-16
 -7.99702053E+00 -1.26781159E+00 -8.02267252E-16 -5.32757450E+00 -2.05868844E+00
 -6.39596788E-16 -5.32757450E+00 -2.05868844E+00 -6.39596788E-16 -5.32757450E+00
 -2.05868844E+00 -6.39596788E-16 -5.32757450E+00 -2.05868844E+00 -6.39596788E-16
 -5.32757450E+00 -2.05868844E+00 -6.39596788E-16 -4.57723049E-16 -3.73771577E+00
  0.00000000E+00 -4.57723049E-16 -3.73771577E+00  0.00000000E+00 -4.57723049E-16
 -3.73771577E+00  0.00000000E+00 -4.57723049E-16 -3.73771577E+00  0.00000000E+00
 -4.57723049E-16 -3.73771577E+00  0.00000000E+00 -2.05868844E+00 -5.32757450E+00