This is Gaussian file created by HARLEM                                 
SP        RHF                                                         Gen
Number of atoms                            I               20
Charge                                     I                0
Multiplicity                               I                1
Number of electrons                        I               50
Number of alpha electrons                  I               25
Number of beta electrons                   I               25
Number of basis functions                  I               82
Number of independant functions            I               82
Number of contracted shells                I               58
Highest angular momentum                   I                1
Largest degree of contraction              I                3
Number of primitive shells                 I               96
Viriral Ratio                              R      1.999868301199323E+00
SCF Energy                                 R     -2.340657542077518E+02
Total Energy                               R     -2.340657542077518E+02
RMS Density                                R      3.972495484186719E-09
Atomic numbers                             I   N=          20
           1           6           1           1           6           1
           1           6           1           1           6           1
           1           6           1           1           6           1
           1           1
Nuclear charges                            R   N=          20
  1.00000000E+00  6.00000000E+00  1.00000000E+00  1.00000000E+00  6.00000000E+00
  1.00000000E+00  1.00000000E+00  6.00000000E+00  1.00000000E+00  1.00000000E+00
  6.00000000E+00  1.00000000E+00  1.00000000E+00  6.00000000E+00  1.00000000E+00
  1.00000000E+00  6.00000000E+00  1.00000000E+00  1.00000000E+00  1.00000000E+00
Current cartesian coordinates              R   N=          60
 -3.27311880E-01  7.59134299E+00  0.00000000E+00  8.40096585E-01  5.94038199E+00
  0.00000000E+00  2.00750127E+00  5.94038199E+00 -1.65096100E+00  2.00750127E+00
  5.94038199E+00  1.65096100E+00 -8.40096585E-01  3.56422919E+00  0.00000000E+00
 -2.00750127E+00  3.56422919E+00  1.65096100E+00 -2.00750127E+00  3.56422919E+00
 -1.65096100E+00  8.40096585E-01  1.18807640E+00  0.00000000E+00  2.00750127E+00
  1.18807640E+00 -1.65096100E+00  2.00750127E+00  1.18807640E+00  1.65096100E+00
 -8.40096585E-01 -1.18807640E+00  0.00000000E+00 -2.00750127E+00 -1.18807640E+00
  1.65096100E+00 -2.00750127E+00 -1.18807640E+00 -1.65096100E+00  8.40096585E-01
 -3.56422919E+00  0.00000000E+00  2.00750127E+00 -3.56422919E+00 -1.65096100E+00
  2.00750127E+00 -3.56422919E+00  1.65096100E+00 -8.40096585E-01 -5.94038199E+00
  0.00000000E+00 -2.00750127E+00 -5.94038199E+00  1.65096100E+00 -2.00750127E+00
 -5.94038199E+00 -1.65096100E+00  3.27311880E-01 -7.59134299E+00  0.00000000E+00
Atom types                                 I   N=          20
           0           0           0           0           0           0
           0           0           0           0           0           0
           0           0           0           0           0           0
           0           0
Force Field                                I                0
MM charges                                 R   N=          20
  0.00000000E+00  0.00000000E+00  0.00000000E+00  0.00000000E+00  0.00000000E+00
  0.00000000E+00  0.00000000E+00  0.00000000E+00  0.00000000E+00  0.00000000E+00
  0.00000000E+00  0.00000000E+00  0.00000000E+00  0.00000000E+00  0.00000000E+00
  0.00000000E+00  0.00000000E+00  0.00000000E+00  0.00000000E+00  0.00000000E+00
ONIOM Charges                              I   N=           4
           0           0           0           0
ONIOM Multiplicities                       I   N=           4
           1           0           0           0
Atom Layers                                I   N=          20
           1           1           1           1           1           1
           1           1           1           1           1           1
           1           1           1           1           1           1
           1           1
Atom Modifiers                             I   N=          20
           0           0           0           0           0           0
           0           0           0           0           0           0
           0           0           0           0           0           0
           0           0
Atom types                                 I   N=          20
           0           0           0           0           0           0
           0           0           0           0           0           0
           0           0           0           0           0           0
           0           0
Link Atoms                                 I   N=          20
           0           0           0           0           0           0
           0           0           0           0           0           0
           0           0           0           0           0           0
           0           0
Atom Modified MM Charges                   R   N=          20
  0.00000000E+00  0.00000000E+00  0.00000000E+00  0.00000000E+00  0.00000000E+00
  0.00000000E+00  0.00000000E+00  0.00000000E+00  0.00000000E+00  0.00000000E+00
  0.00000000E+00  0.00000000E+00  0.00000000E+00  0.00000000E+00  0.00000000E+00
  0.00000000E+00  0.00000000E+00  0.00000000E+00  0.00000000E+00  0.00000000E+00
Link Distances                             R   N=          20
  0.00000000E+00  0.00000000E+00  0.00000000E+00  0.00000000E+00  0.00000000E+00
  0.00000000E+00  0.00000000E+00  0.00000000E+00  0.00000000E+00  0.00000000E+00
  0.00000000E+00  0.00000000E+00  0.00000000E+00  0.00000000E+00  0.00000000E+00
  0.00000000E+00  0.00000000E+00  0.00000000E+00  0.00000000E+00  0.00000000E+00
MxBond                                     I                4
NBond                                      I   N=          20
           1           4           1           1           4           1
           1           4           1           1           4           1
           1           4           1           1           4           1
           1           1
IBond                                      I   N=          80
           2           0           0           0           1           3
           4           5           2           0           0           0
           2           0           0           0           2           6
           7           8           5           0           0           0
           5           0           0           0           5           9
          10          11           8           0           0           0
           8           0           0           0           8          12
          13          14          11           0           0           0
          11           0           0           0          11          15
          16          17          14           0           0           0
          14           0           0           0          14          18
          19          20          17           0           0           0
          17           0           0           0          17           0
           0           0
RBond                                      R   N=          80
  1.00000000E+00  0.00000000E+00  0.00000000E+00  0.00000000E+00  1.00000000E+00
  1.00000000E+00  1.00000000E+00  1.00000000E+00  1.00000000E+00  0.00000000E+00
  0.00000000E+00  0.00000000E+00  1.00000000E+00  0.00000000E+00  0.00000000E+00
  0.00000000E+00  1.00000000E+00  1.00000000E+00  1.00000000E+00  1.00000000E+00
  1.00000000E+00  0.00000000E+00  0.00000000E+00  0.00000000E+00  1.00000000E+00
  0.00000000E+00  0.00000000E+00  0.00000000E+00  1.00000000E+00  1.00000000E+00
  1.00000000E+00  1.00000000E+00  1.00000000E+00  0.00000000E+00  0.00000000E+00
  0.00000000E+00  1.00000000E+00  0.00000000E+00  0.00000000E+00  0.00000000E+00
  1.00000000E+00  1.00000000E+00  1.00000000E+00  1.00000000E+00  1.00000000E+00
  0.00000000E+00  0.00000000E+00  0.00000000E+00  1.00000000E+00  0.00000000E+00
  0.00000000E+00  0.00000000E+00  1.00000000E+00  1.00000000E+00  1.00000000E+00
  1.00000000E+00  1.00000000E+00  0.00000000E+00  0.00000000E+00  0.00000000E+00
  1.00000000E+00  0.00000000E+00  0.00000000E+00  0.00000000E+00  1.00000000E+00
  1.00000000E+00  1.00000000E+00  1.00000000E+00  1.00000000E+00  0.00000000E+00
  0.00000000E+00  0.00000000E+00  1.00000000E+00  0.00000000E+00  0.00000000E+00
  0.00000000E+00  1.00000000E+00  0.00000000E+00  0.00000000E+00  0.00000000E+00
Shell types                                I   N=          58
           0           0           0           0           0           1
           1           0           0           0           0           0
           0           0           1           1           0           0
           0           0           0           0           0           1
           1           0           0           0           0           0
           0           0           1           1           0           0
           0           0           0           0           0           1
           1           0           0           0           0           0
           0           0           1           1           0           0
           0           0           0           0
Number of primitives per shell             I   N=          58
           2           1           3           2           1           2
           1           2           1           2           1           3
           2           1           2           1           2           1
           2           1           3           2           1           2
           1           2           1           2           1           3
           2           1           2           1           2           1
           2           1           3           2           1           2
           1           2           1           2           1           3
           2           1           2           1           2           1
           2           1           2           1
Shell to atom map                          I   N=          58
           1           1           2           2           2           2
           2           3           3           4           4           5
           5           5           5           5           6           6
           7           7           8           8           8           8
           8           9           9          10          10          11
          11          11          11          11          12          12
          13          13          14          14          14          14
          14          15          15          16          16          17
          17          17          17          17          18          18
          19          19          20          20
Primitive exponents                        R   N=          96
  5.44717800E+00  8.24547240E-01  1.83191580E-01  1.72256000E+02  2.59109000E+01
  5.53335000E+00  3.66498000E+00  7.70545000E-01  1.95857000E-01  3.66498000E+00
  7.70545000E-01  1.95857000E-01  5.44717800E+00  8.24547240E-01  1.83191580E-01
  5.44717800E+00  8.24547240E-01  1.83191580E-01  1.72256000E+02  2.59109000E+01
  5.53335000E+00  3.66498000E+00  7.70545000E-01  1.95857000E-01  3.66498000E+00
  7.70545000E-01  1.95857000E-01  5.44717800E+00  8.24547240E-01  1.83191580E-01
  5.44717800E+00  8.24547240E-01  1.83191580E-01  1.72256000E+02  2.59109000E+01
  5.53335000E+00  3.66498000E+00  7.70545000E-01  1.95857000E-01  3.66498000E+00
  7.70545000E-01  1.95857000E-01  5.44717800E+00  8.24547240E-01  1.83191580E-01
  5.44717800E+00  8.24547240E-01  1.83191580E-01  1.72256000E+02  2.59109000E+01
  5.53335000E+00  3.66498000E+00  7.70545000E-01  1.95857000E-01  3.66498000E+00
  7.70545000E-01  1.95857000E-01  5.44717800E+00  8.24547240E-01  1.83191580E-01
  5.44717800E+00  8.24547240E-01  1.83191580E-01  1.72256000E+02  2.59109000E+01
  5.53335000E+00  3.66498000E+00  7.70545000E-01  1.95857000E-01  3.66498000E+00
  7.70545000E-01  1.95857000E-01  5.44717800E+00  8.24547240E-01  1.83191580E-01
  5.44717800E+00  8.24547240E-01  1.83191580E-01  1.72256000E+02  2.59109000E+01
  5.53335000E+00  3.66498000E+00  7.70545000E-01  1.95857000E-01  3.66498000E+00
  7.70545000E-01  1.95857000E-01  5.44717800E+00  8.24547240E-01  1.83191580E-01
  5.44717800E+00  8.24547240E-01  1.83191580E-01  5.44717800E+00  8.24547240E-01
  1.83191580E-01
Contraction coefficients                   R   N=          96
  1.56284979E-01  9.04690877E-01  1.00000000E+00  6.17669074E-02  3.58794043E-01
  7.00713084E-01 -3.95895162E-01  1.21583436E+00  1.00000000E+00  2.36459947E-01
  8.60618806E-01  1.00000000E+00  1.56284979E-01  9.04690877E-01  1.00000000E+00
  1.56284979E-01  9.04690877E-01  1.00000000E+00  6.17669074E-02  3.58794043E-01
  7.00713084E-01 -3.95895162E-01  1.21583436E+00  1.00000000E+00  2.36459947E-01
  8.60618806E-01  1.00000000E+00  1.56284979E-01  9.04690877E-01  1.00000000E+00
  1.56284979E-01  9.04690877E-01  1.00000000E+00  6.17669074E-02  3.58794043E-01
  7.00713084E-01 -3.95895162E-01  1.21583436E+00  1.00000000E+00  2.36459947E-01
  8.60618806E-01  1.00000000E+00  1.56284979E-01  9.04690877E-01  1.00000000E+00
  1.56284979E-01  9.04690877E-01  1.00000000E+00  6.17669074E-02  3.58794043E-01
  7.00713084E-01 -3.95895162E-01  1.21583436E+00  1.00000000E+00  2.36459947E-01
  8.60618806E-01  1.00000000E+00  1.56284979E-01  9.04690877E-01  1.00000000E+00
  1.56284979E-01  9.04690877E-01  1.00000000E+00  6.17669074E-02  3.58794043E-01
  7.00713084E-01 -3.95895162E-01  1.21583436E+00  1.00000000E+00  2.36459947E-01
  8.60618806E-01  1.00000000E+00  1.56284979E-01  9.04690877E-01  1.00000000E+00
  1.56284979E-01  9.04690877E-01  1.00000000E+00  6.17669074E-02  3.58794043E-01
  7.00713084E-01 -3.95895162E-01  1.21583436E+00  1.00000000E+00  2.36459947E-01
  8.60618806E-01  1.00000000E+00  1.56284979E-01  9.04690877E-01  1.00000000E+00
  1.56284979E-01  9.04690877E-01  1.00000000E+00  1.56284979E-01  9.04690877E-01
  1.00000000E+00
Coordinates of each shell                  R   N=         174
 -3.27311880E-01  7.59134299E+00  0.00000000E+00 -3.27311880E-01  7.59134299E+00
  0.00000000E+00  8.40096585E-01  5.94038199E+00  0.00000000E+00  8.40096585E-01
  5.94038199E+00  0.00000000E+00  8.40096585E-01  5.94038199E+00  0.00000000E+00
  8.40096585E-01  5.94038199E+00  0.00000000E+00  8.40096585E-01  5.94038199E+00
  0.00000000E+00  2.00750127E+00  5.94038199E+00 -1.65096100E+00  2.00750127E+00
  5.94038199E+00 -1.65096100E+00  2.00750127E+00  5.94038199E+00  1.65096100E+00
  2.00750127E+00  5.94038199E+00  1.65096100E+00 -8.40096585E-01  3.56422919E+00
  0.00000000E+00 -8.40096585E-01  3.56422919E+00  0.00000000E+00 -8.40096585E-01
  3.56422919E+00  0.00000000E+00 -8.40096585E-01  3.56422919E+00  0.00000000E+00
 -8.40096585E-01  3.56422919E+00  0.00000000E+00 -2.00750127E+00  3.56422919E+00
  1.65096100E+00 -2.00750127E+00  3.56422919E+00  1.65096100E+00 -2.00750127E+00
  3.56422919E+00 -1.65096100E+00 -2.00750127E+00  3.56422919E+00 -1.65096100E+00
  8.40096585E-01  1.18807640E+00  0.00000000E+00  8.40096585E-01  1.18807640E+00
  0.00000000E+00  8.40096585E-01  1.18807640E+00  0.00000000E+00  8.40096585E-01
  1.18807640E+00  0.00000000E+00  8.40096585E-01  1.18807640E+00  0.00000000E+00
  2.00750127E+00  1.18807640E+00 -1.65096100E+00  2.00750127E+00  1.18807640E+00
 -1.65096100E+00  2.00750127E+00  1.18807640E+00  1.65096100E+00  2.00750127E+00
  1.18807640E+00  1.65096100E+00 -8.40096585E-01 -1.18807640E+00  0.00000000E+00
 -8.40096585E-01 -1.18807640E+00  0.00000000E+00 -8.40096585E-01 -1.18807640E+00
  0.00000000E+00 -8.40096585E-01 -1.18807640E+00  0.00000000E+00 -8.40096585E-01
 -1.18807640E+00  0.00000000E+00 -2.00750127E+00 -1.18807640E+00  1.65096100E+00
 -2.00750127E+00 -1.18807640E+00  1.65096100E+00 -2.00750127E+00 -1.18807640E+00
 -1.65096100E+00 -2.00750127E+00 -1.18807640E+00 -1.65096100E+00  8.40096585E-01
 -3.56422919E+00  0.00000000E+00  8.40096585E-01 -3.56422919E+00  0.00000000E+00
  8.40096585E-01 -3.56422919E+00  0.00000000E+00  8.40096585E-01 -3.56422919E+00
  0.00000000E+00  8.40096585E-01 -3.56422919E+00  0.00000000E+00  2.00750127E+00
 -3.56422919E+00 -1.65096100E+00  2.00750127E+00 -3.56422919E+00 -1.65096100E+00
  2.00750127E+00 -3.56422919E+00  1.65096100E+00  2.00750127E+00 -3.56422919E+00
  1.65096100E+00 -8.40096585E-01 -5.94038199E+00  0.00000000E+00 -8.40096585E-01
 -5.94038199E+00  0.00000000E+00 -8.40096585E-01 -5.94038199E+00  0.00000000E+00
 -8.40096585E-01 -5.94038199E+00  0.00000000E+00 -8.40096585E-01 -5.94038199E+00
  0.00000000E+00 -2.00750127E+00 -5.94038199E+00  1.65096100E+00 -2.00750127E+00
 -5.94038199E+00  1.65096100E+00 -2.00750127E+00 -5.94038199E+00 -1.65096100E+00
 -2.00750127E+00 -5.94038199E+00 -1.65096100E+00  3.27311880E-01 -7.59134299E+00
  0.00000000E+00  3.27311880E-01 -7.59134299E+00  0.00000000E+00
Alpha Orbital Energies                     R   N=          82
 -1.11501634E+01 -1.11500301E+01 -1.11482636E+01 -1.11480737E+01 -1.11412278E+01
 -1.11411800E+01 -1.09064405E+00 -1.04130579E+00 -9.64951679E-01 -8.73824807E-01
 -8.02614270E-01 -7.95210280E-01 -6.64710590E-01 -6.21394939E-01 -5.95003129E-01
 -5.81950928E-01 -5.62276352E-01 -5.25796822E-01 -5.15970743E-01 -5.07126416E-01
 -4.79473942E-01 -4.75016424E-01 -4.67649566E-01 -4.59358823E-01 -4.13655528E-01
  2.61744195E-01  2.78616753E-01  2.97649038E-01  3.15965158E-01  3.18239678E-01
  3.46113161E-01  3.55193455E-01  3.55407782E-01  3.77045260E-01  3.77453108E-01
  3.82422464E-01  3.86305378E-01  4.01297807E-01  4.02617715E-01  4.19599067E-01
  4.25081748E-01  4.60635523E-01  4.95508903E-01  5.00034693E-01  8.87920398E-01
  9.00008665E-01  9.07919910E-01  9.29434675E-01  9.38420068E-01  9.62382484E-01
  9.96491721E-01  1.02824340E+00  1.04631448E+00  1.07070081E+00  1.08275302E+00
  1.10124105E+00  1.17995630E+00  1.22655732E+00  1.24230412E+00  1.26538499E+00
  1.28130389E+00  1.29052172E+00  1.36371026E+00  1.38833045E+00  1.38872570E+00
  1.39187659E+00  1.42004753E+00  1.43520606E+00  1.46377520E+00  1.46692125E+00
  1.47093910E+00  1.47487989E+00  1.47893509E+00  1.49963851E+00  1.56573196E+00
  1.76101010E+00  1.88036151E+00  2.09673317E+00  2.25762408E+00  2.34024497E+00
  2.45836487E+00  2.77621149E+00
Alpha MO coefficients                      R   N=        6724
 -6.94039820E-04 -1.76420394E-04 -5.36113300E-03 -2.04685453E-03  1.51518575E-02
 -1.68609151E-04 -4.65975554E-04 -3.54390656E-16 -4.06610912E-03 -6.94957711E-03
  1.47903869E-15 -9.01958648E-04 -1.22924021E-05 -9.01958648E-04 -1.22924021E-05
  6.98605326E-01  7.49694991E-02 -6.93664221E-02  1.22832122E-04 -2.89956367E-04
  1.56062466E-16 -4.93645613E-03  3.44361470E-03 -1.92214346E-15  8.57996276E-04
  1.09717250E-02  8.57996276E-04  1.09717250E-02  1.16012371E-02 -4.97651960E-05
  1.63234106E-02  3.06823730E-04 -2.55454984E-04  1.40534606E-16 -7.98988933E-03
  8.88399490E-03  1.43510608E-15 -8.96565893E-04  1.89873912E-03 -8.96565893E-04
  1.89873912E-03 -1.16012371E-02  4.97651961E-05 -1.63234106E-02  3.06823730E-04
 -2.55454984E-04  3.39669222E-16 -7.98988933E-03  8.88399490E-03 -1.08502044E-15
  8.96565893E-04 -1.89873912E-03  8.96565893E-04 -1.89873912E-03 -6.98605326E-01
 -7.49694990E-02  6.93664220E-02  1.22832122E-04 -2.89956367E-04 -2.56826538E-16
 -4.93645613E-03  3.44361470E-03  5.06856581E-16 -8.57996276E-04 -1.09717250E-02
 -8.57996276E-04 -1.09717250E-02  5.36113300E-03  2.04685453E-03 -1.51518575E-02
 -1.68609151E-04 -4.65975554E-04 -1.30251692E-16 -4.06610912E-03 -6.94957711E-03
 -9.99495277E-17  9.01958648E-04  1.22924021E-05  9.01958648E-04  1.22924021E-05
  6.94039820E-04  1.76420394E-04 -8.89063151E-04 -4.40437509E-04 -5.14182641E-03
 -2.05822890E-03  1.64249034E-02 -7.61230827E-05 -5.44871470E-04 -1.51983405E-16
 -5.67817366E-03 -7.26533143E-03  2.37302333E-16 -9.43257228E-04  5.93397244E-04
 -9.43257228E-04  5.93397244E-04  6.94658323E-01  7.34905411E-02 -6.61542491E-02
  2.65784693E-04  2.84836335E-04  6.58194388E-16 -5.85841450E-03 -1.18915704E-03
 -1.48641056E-15  3.56888291E-04  1.08026939E-02  3.56888291E-04  1.08026939E-02
 -7.39250847E-02 -9.76780547E-03  2.07493514E-02 -7.73823457E-05  8.68805993E-04
  3.40802511E-17 -3.70637182E-03  7.99865892E-03  1.08974265E-16 -8.47698254E-04
 -1.77702259E-03 -8.47698254E-04 -1.77702259E-03 -7.39250848E-02 -9.76780547E-03
  2.07493514E-02  7.73823457E-05 -8.68805993E-04  1.27378701E-16  3.70637182E-03
 -7.99865892E-03  3.23827012E-18 -8.47698254E-04 -1.77702259E-03 -8.47698254E-04
 -1.77702259E-03  6.94658323E-01  7.34905411E-02 -6.61542491E-02 -2.65784693E-04
 -2.84836335E-04 -1.63815247E-16  5.85841450E-03  1.18915704E-03  1.84825384E-17
  3.56888291E-04  1.08026939E-02  3.56888291E-04  1.08026939E-02 -5.14182641E-03
 -2.05822890E-03  1.64249034E-02  7.61230827E-05  5.44871470E-04 -6.92502541E-17
  5.67817366E-03  7.26533143E-03 -1.69370015E-16 -9.43257228E-04  5.93397244E-04
 -9.43257228E-04  5.93397244E-04 -8.89063151E-04 -4.40437509E-04 -1.08843383E-04
  4.08493384E-04 -6.83841588E-03 -7.13776347E-04 -1.51676990E-03  2.07572167E-05
  3.98420780E-04 -5.25840962E-17  5.87074625E-04  1.84499948E-03  3.23231458E-16
  3.25256383E-04 -1.01453441E-03  3.25256383E-04 -1.01453441E-03 -1.22639649E-02
 -2.50783562E-03  1.73335418E-02 -1.98037200E-04 -1.08131296E-03 -1.28738036E-16
  7.09143648E-03 -6.92865475E-03 -3.99413310E-16 -9.52238325E-04  1.40244224E-03
 -9.52238325E-04  1.40244224E-03  6.98827700E-01  7.61856249E-02 -8.43764982E-02
 -2.81925973E-04  3.21070285E-04 -2.24534486E-16  1.11795001E-02  8.30608538E-03
  7.18620322E-16  1.48165434E-03  1.04625059E-02  1.48165434E-03  1.04625059E-02
 -6.98827700E-01 -7.61856249E-02  8.43764982E-02 -2.81925973E-04  3.21070285E-04
  1.35936128E-16  1.11795001E-02  8.30608538E-03 -9.39905796E-16 -1.48165434E-03
 -1.04625059E-02 -1.48165434E-03 -1.04625059E-02  1.22639649E-02  2.50783562E-03
 -1.73335418E-02 -1.98037200E-04 -1.08131296E-03 -3.71869674E-16  7.09143648E-03
 -6.92865475E-03  8.50206999E-16  9.52238325E-04 -1.40244224E-03  9.52238325E-04
 -1.40244224E-03  6.83841588E-03  7.13776347E-04  1.51676990E-03  2.07572167E-05
  3.98420780E-04 -4.98212108E-17  5.87074625E-04  1.84499948E-03 -6.56382907E-16
 -3.25256383E-04  1.01453441E-03 -3.25256383E-04  1.01453441E-03  1.08843383E-04
 -4.08493384E-04 -2.25590893E-04  1.70952290E-03 -2.56526521E-02 -4.31115868E-03
  7.27190997E-03 -1.77567304E-04  8.08241983E-04 -4.41278219E-18  3.74172843E-04
 -3.89691925E-03  1.74956658E-16 -4.81981618E-04 -1.42059583E-03 -4.81981618E-04
 -1.42059583E-03  7.31358940E-02  5.79097756E-03  6.78633492E-03  2.00437322E-04
  7.12743070E-05  3.71114295E-16  2.16302689E-03 -8.79238489E-03 -3.28233811E-16
 -8.36656160E-04  4.71035602E-04 -8.36656160E-04  4.71035602E-04  6.93964846E-01
  7.21018562E-02 -4.92874099E-02 -8.07874943E-05 -2.24335008E-04  5.67069756E-16
 -1.13660379E-03 -6.51569707E-03 -1.17148092E-15 -4.12058325E-04  1.14597685E-02
 -4.12058325E-04  1.14597685E-02  6.93964846E-01  7.21018562E-02 -4.92874099E-02
  8.07874943E-05  2.24335008E-04  1.88825724E-16  1.13660379E-03  6.51569707E-03
  1.72838265E-16 -4.12058325E-04  1.14597685E-02 -4.12058325E-04  1.14597685E-02
  7.31358940E-02  5.79097756E-03  6.78633492E-03 -2.00437322E-04 -7.12743070E-05
  3.47405276E-16 -2.16302689E-03  8.79238489E-03 -2.40499922E-16 -8.36656160E-04
  4.71035602E-04 -8.36656160E-04  4.71035602E-04 -2.56526521E-02 -4.31115868E-03
  7.27190997E-03  1.77567304E-04 -8.08241983E-04  1.92241165E-16 -3.74172843E-04
  3.89691925E-03 -4.18769088E-16 -4.81981618E-04 -1.42059583E-03 -4.81981618E-04
 -1.42059583E-03 -2.25590893E-04  1.70952290E-03 -4.36277415E-05  9.77816815E-03
  6.98255163E-01  7.24997066E-02 -5.91691586E-02  1.11078903E-04 -2.81388733E-04
 -1.33255157E-16  1.40714807E-03  4.15954969E-03  6.11998861E-16  1.70296326E-04
  1.07674720E-02  1.70296326E-04  1.07674720E-02  4.73841134E-03 -7.04229559E-04
  1.26234906E-02 -4.31573594E-05 -4.06023644E-07 -1.44504628E-17  4.54479813E-03
  7.62243567E-03 -6.99931304E-16 -7.30511481E-04  5.10778965E-04 -7.30511481E-04
  5.10778965E-04  7.05432854E-03  8.00611838E-04 -4.18810923E-03 -2.46462279E-04
 -1.01933158E-03 -1.04721288E-16  2.99089094E-03  5.72810204E-03  1.07147533E-15
  1.42767699E-04 -1.05384853E-03  1.42767699E-04 -1.05384853E-03 -7.05432853E-03
 -8.00611837E-04  4.18810923E-03 -2.46462278E-04 -1.01933158E-03  1.00961559E-16
  2.99089094E-03  5.72810204E-03 -7.77788438E-16 -1.42767699E-04  1.05384853E-03
 -1.42767699E-04  1.05384853E-03 -4.73841134E-03  7.04229559E-04 -1.26234906E-02
 -4.31573594E-05 -4.06023726E-07 -3.08158730E-17  4.54479813E-03  7.62243566E-03
  1.17107094E-16  7.30511480E-04 -5.10778965E-04  7.30511480E-04 -5.10778965E-04
 -6.98255163E-01 -7.24997066E-02  5.91691585E-02  1.11078903E-04 -2.81388733E-04
  3.55393610E-17  1.40714807E-03  4.15954969E-03 -2.68735571E-16 -1.70296326E-04
 -1.07674720E-02 -1.70296326E-04 -1.07674720E-02  4.36277415E-05 -9.77816815E-03
 -2.54950440E-05  1.03653634E-02  6.97778666E-01  7.20975237E-02 -5.82110128E-02
  3.08395717E-05 -7.47794343E-05 -2.72605888E-16  1.71622119E-03  3.01116585E-03
  4.98098352E-16  8.01325363E-06  1.06566798E-02  8.01325363E-06  1.06566798E-02
  7.26723968E-03 -5.96583743E-04  1.30863990E-02 -4.41256420E-05  1.55262166E-04
  9.32497669E-17  5.07456518E-03  6.50121079E-03 -5.21863482E-16 -8.52026819E-04
  9.14999888E-04 -8.52026819E-04  9.14999888E-04  2.46387820E-02  1.09346937E-03
  1.63655828E-03 -3.04047636E-04 -5.27301943E-04 -2.01461217E-16  1.93386559E-03
 -2.41037271E-04  2.13351269E-16 -4.80822485E-04 -8.02260597E-04 -4.80822485E-04
 -8.02260597E-04  2.46387820E-02  1.09346937E-03  1.63655828E-03  3.04047636E-04
  5.27301944E-04 -3.40134075E-16 -1.93386559E-03  2.41037268E-04  1.11240677E-15
 -4.80822485E-04 -8.02260597E-04 -4.80822485E-04 -8.02260597E-04  7.26723968E-03
 -5.96583743E-04  1.30863990E-02  4.41256420E-05 -1.55262166E-04  7.05755312E-16
 -5.07456518E-03 -6.50121080E-03 -1.35325544E-15 -8.52026819E-04  9.14999888E-04
 -8.52026819E-04  9.14999888E-04  6.97778666E-01  7.20975237E-02 -5.82110128E-02
 -3.08395718E-05  7.47794344E-05 -4.05736824E-16 -1.71622119E-03 -3.01116585E-03
  6.67929870E-16  8.01325372E-06  1.06566798E-02  8.01325372E-06  1.06566798E-02
 -2.54950440E-05  1.03653634E-02  2.42551634E-02 -5.86316446E-03 -5.43749567E-02
  5.68379891E-02  1.16035246E-01 -1.20172328E-02 -2.64638548E-02  2.78664430E-16
  1.29216667E-03  5.90095631E-03 -7.88720408E-15  2.75914070E-02  1.99575361E-04
  2.75914070E-02  1.99575361E-04 -9.42259697E-02  9.17009563E-02  2.22909244E-01
  2.32438674E-02 -2.08262094E-02 -4.54766923E-16  8.62573698E-03  7.16370925E-03
  6.45440703E-15  4.55093284E-02 -1.59321574E-03  4.55093284E-02 -1.59321574E-03
 -1.17461886E-01  1.14656233E-01  2.73780678E-01 -2.84345187E-02 -7.07332453E-03
  1.42741378E-15 -8.15835736E-03  8.47186853E-04 -3.14671060E-15  5.70027573E-02
 -1.83292889E-03  5.70027573E-02 -1.83292889E-03 -1.17461886E-01  1.14656233E-01
  2.73780678E-01  2.84345187E-02  7.07332453E-03 -3.41488211E-16  8.15835736E-03
 -8.47186853E-04  8.27160699E-15  5.70027573E-02 -1.83292889E-03  5.70027573E-02
 -1.83292889E-03 -9.42259697E-02  9.17009563E-02  2.22909244E-01 -2.32438674E-02
  2.08262094E-02  9.90056496E-16 -8.62573698E-03 -7.16370925E-03 -3.26282419E-15
  4.55093284E-02 -1.59321574E-03  4.55093284E-02 -1.59321574E-03 -5.43749567E-02
  5.68379891E-02  1.16035246E-01  1.20172328E-02  2.64638548E-02 -3.57324382E-16
 -1.29216667E-03 -5.90095631E-03  3.23792015E-16  2.75914070E-02  1.99575361E-04
  2.75914070E-02  1.99575361E-04  2.42551634E-02 -5.86316446E-03  4.79669507E-02
  4.83491388E-04 -9.81455239E-02  9.58392682E-02  2.46877218E-01 -1.80553146E-02
 -3.07708940E-02  1.50597794E-15 -2.12399493E-03 -5.36348058E-03 -1.43932724E-14
  5.01430076E-02  1.29826389E-03  5.01430076E-02  1.29826389E-03 -1.13698959E-01
  1.05149094E-01  3.00812366E-01  2.52344867E-02  1.52300923E-02  4.38253134E-16
  1.03650132E-02 -5.61077349E-03  7.96779856E-15  5.56991714E-02 -2.10134566E-03
  5.56991714E-02 -2.10134566E-03 -5.05010093E-02  4.68605128E-02  1.34419938E-01
 -1.04464451E-02  5.73416762E-02  1.11006288E-15 -5.61330981E-03 -1.19630909E-02
 -8.00885519E-15  2.51222680E-02 -7.01307829E-04  2.51222680E-02 -7.01307829E-04
  5.05010093E-02 -4.68605128E-02 -1.34419938E-01 -1.04464451E-02  5.73416762E-02
 -3.93994560E-16 -5.61330981E-03 -1.19630909E-02  5.08634157E-15 -2.51222680E-02
  7.01307829E-04 -2.51222680E-02  7.01307829E-04  1.13698959E-01 -1.05149094E-01
 -3.00812366E-01  2.52344867E-02  1.52300923E-02 -3.30098687E-16  1.03650132E-02
 -5.61077349E-03 -7.97893822E-16 -5.56991714E-02  2.10134566E-03 -5.56991714E-02
  2.10134566E-03  9.81455239E-02 -9.58392682E-02 -2.46877218E-01 -1.80553146E-02
 -3.07708940E-02 -2.86186261E-16 -2.12399493E-03 -5.36348058E-03 -2.62165110E-15
 -5.01430076E-02 -1.29826389E-03 -5.01430076E-02 -1.29826389E-03 -4.79669507E-02
 -4.83491388E-04  6.98707386E-02  1.20336049E-02 -1.18761332E-01  1.11111486E-01
  3.44289881E-01 -9.62670251E-03 -2.52707496E-03  8.52761531E-16 -3.85261309E-03
 -5.79689798E-03 -1.59276145E-14  6.62481479E-02  5.28274417E-03  6.62481479E-02
  5.28274417E-03 -4.16024744E-02  3.66522372E-02  1.25153258E-01  7.31364914E-03
  7.92268973E-02  2.40404862E-16  4.05285129E-03  7.22433199E-03  4.01999799E-15
  2.16062145E-02 -1.01945241E-03  2.16062145E-02 -1.01945241E-03  9.01666351E-02
 -7.95721061E-02 -2.71074589E-01  1.21025460E-02  5.28942987E-02 -6.36935965E-17
  7.91586650E-03  3.54636798E-03 -8.66999693E-15 -4.78975439E-02 -4.75392357E-04
 -4.78975439E-02 -4.75392357E-04  9.01666351E-02 -7.95721061E-02 -2.71074589E-01
 -1.21025460E-02 -5.28942987E-02  5.58208743E-16 -7.91586650E-03 -3.54636798E-03