 Entering Gaussian System, Link 0=<
 Input=h2o_2.com
 Output=h2o_2.log
CYGWIN_NT-5.0 TANK 1.5.7(0.109/3/2) 2004-01-30 19:32 i686 unknown unknown Cygwin
 Initial command:
 c:\g98w\l1.exe C:\HARLEM\examples\CNDO\gxx.inp /scrdir=C:\HARLEM\examples\CNDO\
