This is Gaussian file created by HARLEM                                 
SP        RHF                                                         Gen                 
Number of atoms                            I                3
Info1-9                                    I   N=           9
          34          34           0           0           0         110
           1           1           2
Charge                                     I                0
Multiplicity                               I                1
Number of electrons                        I               10
Number of alpha electrons                  I                5
Number of beta electrons                   I                5
Number of basis functions                  I               13
Number of independent functions            I               13
Number of point charges in /Mol/           I                0
Number of translation vectors              I                0
Atomic numbers                             I   N=           3
           8           1           1
Nuclear charges                            R   N=           3
  8.00000000E+00  1.00000000E+00  1.00000000E+00
Current cartesian coordinates              R   N=           9
  0.00000000E+00  0.00000000E+00  0.00000000E+00  0.00000000E+00  0.00000000E+00
  1.81413709E+00  1.71020215E+00  0.00000000E+00 -6.04712363E-01
Force Field                                I                0
Int Atom Types                             I   N=           3
           0           0           0
MM charges                                 R   N=           3
  0.00000000E+00  0.00000000E+00  0.00000000E+00
Integer atomic weights                     I   N=           3
          16           1           1
Real atomic weights                        R   N=           3
  1.59949146E+01  1.00782504E+00  1.00782504E+00
Atom fragment info                         I   N=           3
           0           0           0
Atom residue num                           I   N=           3
           0           0           0
Nuclear spins                              I   N=           3
           0           1           1
Nuclear ZEff                               R   N=           3
 -5.60000000E+00 -1.00000000E+00 -1.00000000E+00
Nuclear QMom                               R   N=           3
  0.00000000E+00  0.00000000E+00  0.00000000E+00
Nuclear GFac                               R   N=           3
  0.00000000E+00  2.79284600E+00  2.79284600E+00
MicOpt                                     I   N=           3
          -1          -1          -1
Number of contracted shells                I                9
Number of primitive shells                 I               15
Pure/Cartesian d shells                    I                0
Pure/Cartesian f shells                    I                0
Highest angular momentum                   I                1
Largest degree of contraction              I                3
Shell types                                I   N=           9
           0           0           0           1           1           0
           0           0           0
Number of primitives per shell             I   N=           9
           3           2           1           2           1           2
           1           2           1
Shell to atom map                          I   N=           9
           1           1           1           1           1           2
           2           3           3
Primitive exponents                        R   N=          15
  3.22037000E+02  4.84308000E+01  1.04206000E+01  7.40294000E+00  1.57620000E+00
  3.73684000E-01  7.40294000E+00  1.57620000E+00  3.73684000E-01  5.44717800E+00
  8.24547240E-01  1.83191580E-01  5.44717800E+00  8.24547240E-01  1.83191580E-01
Contraction coefficients                   R   N=          15
  5.92393934E-02  3.51499961E-01  7.07657921E-01 -4.04453583E-01  1.22156176E+00
  1.00000000E+00  2.44586107E-01  8.53955373E-01  1.00000000E+00  1.56284979E-01
  9.04690877E-01  1.00000000E+00  1.56284979E-01  9.04690877E-01  1.00000000E+00
Coordinates of each shell                  R   N=          27
  0.00000000E+00  0.00000000E+00  0.00000000E+00  0.00000000E+00  0.00000000E+00
  0.00000000E+00  0.00000000E+00  0.00000000E+00  0.00000000E+00  0.00000000E+00
  0.00000000E+00  0.00000000E+00  0.00000000E+00  0.00000000E+00  0.00000000E+00
  0.00000000E+00  0.00000000E+00  1.81413709E+00  0.00000000E+00  0.00000000E+00
  1.81413709E+00  1.71020215E+00  0.00000000E+00 -6.04712363E-01  1.71020215E+00
  0.00000000E+00 -6.04712363E-01
Constraint Structure                       R   N=           9
  0.00000000E+00  0.00000000E+00  0.00000000E+00  0.00000000E+00  0.00000000E+00
  1.81413709E+00  1.71020215E+00  0.00000000E+00 -6.04712363E-01
Num ILSW                                   I              100
ILSW                                       I   N=         100
           0           0           0           0           2           0
           0           0           0           0           0          -1
           0           0           0           0           0           0
           0           0           0           0           0           0
           1           1           0           0           0           0
           0           0      100000           0          -1           0
           0           0           0           0           0           0
           0           0           0           1           0           0
           0           0           1           0           0           0
           0           0           4          40           0           0
           0           0           0           0           0           0
           0           0           0           0           0           0
           0           0           0           0           0           0
           0           0           0           0           0           0
           0           0           0           0           0           0
           0           0           0           0           0           0
           0           0           0           0
Num RLSW                                   I               40
RLSW                                       R   N=          40
  1.00000000E+00  1.00000000E+00  1.00000000E+00  1.00000000E+00  1.00000000E+00
  0.00000000E+00  0.00000000E+00  1.00000000E+00  0.00000000E+00  0.00000000E+00
  0.00000000E+00  0.00000000E+00  1.00000000E+00  0.00000000E+00  0.00000000E+00
  0.00000000E+00  0.00000000E+00  1.00000000E+00  0.00000000E+00  0.00000000E+00
  0.00000000E+00  0.00000000E+00  1.00000000E+00  0.00000000E+00  0.00000000E+00
  0.00000000E+00  0.00000000E+00  1.00000000E+00  0.00000000E+00  0.00000000E+00
  0.00000000E+00  0.00000000E+00  0.00000000E+00  0.00000000E+00  0.00000000E+00
  0.00000000E+00  0.00000000E+00  0.00000000E+00  1.00000000E+00  1.00000000E+00
MxBond                                     I                2
NBond                                      I   N=           3
           2           1           1
IBond                                      I   N=           6
           2           3           1           0           1           0
RBond                                      R   N=           6
  1.00000000E+00  1.00000000E+00  1.00000000E+00  0.00000000E+00  1.00000000E+00
  0.00000000E+00
Virial Ratio                               R      2.001834661408955E+00
SCF Energy                                 R     -7.558581138905079E+01
Total Energy                               R     -7.558581138905079E+01
RMS Density                                R      4.016830683613546E-10
External E-field                           R   N=          35
  0.00000000E+00  0.00000000E+00  0.00000000E+00  0.00000000E+00  0.00000000E+00
  0.00000000E+00  0.00000000E+00  0.00000000E+00  0.00000000E+00  0.00000000E+00
  0.00000000E+00  0.00000000E+00  0.00000000E+00  0.00000000E+00  0.00000000E+00
  0.00000000E+00  0.00000000E+00  0.00000000E+00  0.00000000E+00  0.00000000E+00
  0.00000000E+00  0.00000000E+00  0.00000000E+00  0.00000000E+00  0.00000000E+00
  0.00000000E+00  0.00000000E+00  0.00000000E+00  0.00000000E+00  0.00000000E+00
  0.00000000E+00  0.00000000E+00  0.00000000E+00  0.00000000E+00  0.00000000E+00
IOpCl                                      I                0
IROHF                                      I                0
Alpha Orbital Energies                     R   N=          13
 -2.04241204E+01 -1.32211670E+00 -6.91958074E-01 -5.27113681E-01 -4.76417327E-01
  2.63326299E-01  3.63404126E-01  1.22100859E+00  1.27340152E+00  1.78508614E+00
  1.85835463E+00  2.02905682E+00  3.10437885E+00
Alpha MO coefficients                      R   N=         169
  9.83218665E-01  9.58363841E-02 -3.78647767E-02  2.77350814E-03 -4.69832128E-17
  1.96084445E-03 -5.15426129E-03  3.89484634E-17 -3.64355414E-03  2.38145654E-03
  6.97915624E-03  2.38131661E-03  6.98119504E-03 -2.29779731E-01  2.18008707E-01
  7.08494349E-01  6.46519725E-02 -3.36709845E-16  4.56913554E-02  7.24221069E-02
  3.14958532E-16  5.11973350E-02  1.16396699E-01  1.99273338E-02  1.16431239E-01
  1.99213211E-02 -1.32781001E-05  8.16905966E-06  6.78836290E-05 -2.28859395E-01
 -7.43497087E-16  3.23613352E-01 -2.12071584E-01 -1.10547310E-15  2.99888823E-01
  2.33904299E-01  1.78022587E-01 -2.33930676E-01 -1.78003703E-01  8.47069433E-02
 -7.87956986E-02 -3.89696936E-01  3.65059640E-01 -6.70821818E-16  2.58147919E-01
  4.24071041E-01 -7.62415949E-16  2.99881357E-01  1.25644546E-01  1.04005676E-01
  1.25623290E-01  1.03959128E-01  8.96827057E-17 -1.41823086E-16 -2.94296057E-16
 -2.32039564E-16  5.20487871E-01  1.21248645E-15 -3.24899340E-16  6.32858401E-01
  1.64697803E-15  2.89374683E-16 -1.86760853E-15  2.36860926E-17  1.93040155E-15
 -1.11461421E-01  3.63066005E-02  1.05548305E+00  1.65757640E-01 -5.32959181E-17
  1.17276740E-01  3.66977684E-01  9.30063775E-17  2.59635747E-01 -5.31301304E-02
 -8.66243259E-01 -5.31021255E-02 -8.65989605E-01  1.98072072E-05 -3.51674123E-06
 -2.46217703E-04 -1.74162354E-01  3.53525415E-16  2.46277027E-01 -4.51229345E-01
 -1.94201752E-16  6.38059633E-01 -3.01108600E-02 -1.16411834E+00  3.00920668E-02
  1.16446783E+00  4.47644493E-05 -8.03324071E-05  3.73940276E-05  1.18417684E-01
 -1.29510896E-16 -1.67813440E-01  2.67464579E-01  5.18661545E-16 -3.78518178E-01
  9.74410076E-01 -6.62444146E-01 -9.72925947E-01  6.61560711E-01  6.67156424E-02
 -8.88231347E-02 -1.12295414E-01 -1.96480249E-01  2.73892732E-15 -1.38742180E-01
 -2.43212606E-01 -2.54224128E-15 -1.71348769E-01  9.77924676E-01 -4.93080337E-01
  9.79509754E-01 -4.93959855E-01  1.01970292E-16 -4.29879982E-16 -1.01451371E-15
  3.20476258E-15  1.02967929E+00  7.88861833E-15 -6.46331753E-16 -9.64695444E-01
 -9.02144774E-15 -1.22226618E-15  5.12803040E-15 -3.53609808E-15  3.63772710E-17
 -4.03266186E-02  1.16582955E-01  1.67830849E-01 -8.31631251E-01  6.49310917E-15
 -5.87921496E-01  9.18279724E-01 -6.03380173E-15  6.49132707E-01 -2.22051655E-01
 -9.89898740E-02 -2.22038895E-01 -9.91451494E-02 -2.13846005E-06  2.06453098E-05
 -5.61517783E-05  6.15660555E-01  5.37773640E-15 -8.70851093E-01 -8.25699410E-01
 -4.90837322E-15  1.16791135E+00 -1.70483873E-01 -4.93792063E-01  1.70380164E-01
  4.93865430E-01  8.68364714E-02 -1.64080727E+00  1.97843016E+00 -1.19913943E-01
  1.36642783E-16 -8.47896178E-02  3.66104326E-01  5.40003614E-17  2.58799736E-01
 -2.58082973E-01 -3.66027674E-01 -2.58087221E-01 -3.66156212E-01
Total SCF Density                          R   N=          91
  2.05338587E+00  7.49191934E-02  1.25842342E-01 -4.66074067E-01  3.63071113E-01
  1.31052338E+00  3.75947544E-02 -2.88130061E-02 -1.93155241E-01  3.79665467E-01
  4.20793862E-17 -1.97747550E-16 -2.57177612E-16 -4.34813442E-16  5.41815248E-01
  2.65832314E-02 -2.03785369E-02 -1.36559330E-01  4.62738106E-02  4.03661592E-16
  3.46914989E-01  2.84313587E-02 -3.62440445E-02 -2.27535526E-01  4.16027466E-01
 -6.40101481E-16  8.82856364E-02  4.60164265E-01 -8.37740458E-17  8.54170349E-17
  6.64919898E-16 -3.03413723E-16  6.58790243E-01  4.54475095E-16 -5.43770323E-16
  8.01019511E-01  2.01030617E-02 -2.56292630E-02 -1.60863008E-01  8.82842184E-02
  8.32062413E-16  3.53587813E-01  1.34599401E-01  9.96267314E-16  3.64993154E-01
 -2.75285001E-02  3.14107700E-02  6.68576275E-02 -2.63124647E-04 -2.93760115E-16
  2.26904850E-01  2.41903557E-02 -2.68964456E-16  2.27548531E-01  1.68103271E-01
  2.21815567E-02 -6.36111248E-03 -5.33289385E-02 -2.93233727E-03 -2.36246755E-15
  1.70767054E-01  1.55189409E-02 -2.90295681E-15  1.71142289E-01  1.14088181E-01
  8.59100586E-02 -2.75358255E-02  3.14215094E-02  6.68596308E-02  2.13862679E-01
  1.25337660E-16 -7.58982576E-02  2.22606340E-01  4.29161144E-16 -5.30576393E-02
 -5.07512532E-02 -5.24852502E-02  1.68133352E-01  2.21898979E-02 -6.36182459E-03
 -5.33496704E-02  1.59992834E-01  2.12064414E-15 -5.96872426E-02  1.66484688E-01
  2.69147068E-15 -4.24228688E-02 -5.24770650E-02 -4.08612773E-02  1.14072606E-01
  8.58768296E-02
QEq coupling tensors                       R   N=          18
 -7.09719875E-01  1.02603826E-15  2.02530568E+00  8.56230945E-01 -1.56138205E-15
 -1.31558580E+00  2.63721394E-01  1.02105699E-16  3.26565432E-01  2.24823020E-02
  3.94811947E-16 -5.90286826E-01 -4.81503617E-01 -2.98355211E-16  3.26728360E-01
  2.86038828E-01 -1.19390227E-17  1.54775257E-01
Mulliken Charges                           R   N=           3
 -7.39658932E-01  3.69819884E-01  3.69839048E-01
ONIOM Charges                              I   N=          16
           0           0           0           0           0           0
           0           0           0           0           0           0
           0           0           0           0
ONIOM Multiplicities                       I   N=          16
           1           0           0           0           0           0
           0           0           0           0           0           0
           0           0           0           0
Atom Layers                                I   N=           3
           1           1           1
Atom Modifiers                             I   N=           3
           0           0           0
Force Field                                I                0
Int Atom Modified Types                    I   N=           3
           0           0           0
Link Atoms                                 I   N=           3
           0           0           0
Atom Modified MM Charges                   R   N=           3
  0.00000000E+00  0.00000000E+00  0.00000000E+00
Link Distances                             R   N=          12
  0.00000000E+00  0.00000000E+00  0.00000000E+00  0.00000000E+00  0.00000000E+00
  0.00000000E+00  0.00000000E+00  0.00000000E+00  0.00000000E+00  0.00000000E+00
  0.00000000E+00  0.00000000E+00
Cartesian Gradient                         R   N=           9
  0.00000000E+00  0.00000000E+00  0.00000000E+00  0.00000000E+00  0.00000000E+00
  0.00000000E+00  0.00000000E+00  0.00000000E+00  0.00000000E+00
Dipole Moment                              R   N=           3
  7.57396750E-01 -4.24795093E-16  5.35555676E-01
Quadrupole Moment                          R   N=           6
  3.54083279E-01 -1.07854625E+00  7.24462972E-01 -1.26968699E-15 -5.23447334E-01
  1.68407332E-15
